 Entering Gaussian System, Link 0=/gpfs0/gaus/projects/G16A/g16/g16
 Input=/local/gaus/zaki/AB_para_methoxy/AB_para_methoxy.com
 Output=/local/gaus/zaki/AB_para_methoxy/AB_para_methoxy.log
 Initial command:
 /gpfs0/gaus/projects/G16A/g16/l1.exe "/local/gaus/zaki/AB_para_methoxy/Gau-1196207.inp" -scrdir="/local/gaus/zaki/AB_para_methoxy/"
 Entering Link 1 = /gpfs0/gaus/projects/G16A/g16/l1.exe PID=   1196208.
  
 Copyright (c) 1988,1990,1992,1993,1995,1998,2003,2009,2016,
            Gaussian, Inc.  All Rights Reserved.
  
 This is part of the Gaussian(R) 16 program.  It is based on
 the Gaussian(R) 09 system (copyright 2009, Gaussian, Inc.),
 the Gaussian(R) 03 system (copyright 2003, Gaussian, Inc.),
 the Gaussian(R) 98 system (copyright 1998, Gaussian, Inc.),
 the Gaussian(R) 94 system (copyright 1995, Gaussian, Inc.),
 the Gaussian 92(TM) system (copyright 1992, Gaussian, Inc.),
 the Gaussian 90(TM) system (copyright 1990, Gaussian, Inc.),
 the Gaussian 88(TM) system (copyright 1988, Gaussian, Inc.),
 the Gaussian 86(TM) system (copyright 1986, Carnegie Mellon
 University), and the Gaussian 82(TM) system (copyright 1983,
 Carnegie Mellon University). Gaussian is a federally registered
 trademark of Gaussian, Inc.
  
 This software contains proprietary and confidential information,
 including trade secrets, belonging to Gaussian, Inc.
  
 This software is provided under written license and may be
 used, copied, transmitted, or stored only in accord with that
 written license.
  
 The following legend is applicable only to US Government
 contracts under FAR:
  
                    RESTRICTED RIGHTS LEGEND
  
 Use, reproduction and disclosure by the US Government is
 subject to restrictions as set forth in subparagraphs (a)
 and (c) of the Commercial Computer Software - Restricted
 Rights clause in FAR 52.227-19.
  
 Gaussian, Inc.
 340 Quinnipiac St., Bldg. 40, Wallingford CT 06492
  
  
 ---------------------------------------------------------------
 Warning -- This program may not be used in any manner that
 competes with the business of Gaussian, Inc. or will provide
 assistance to any competitor of Gaussian, Inc.  The licensee
 of this program is prohibited from giving any competitor of
 Gaussian, Inc. access to this program.  By using this program,
 the user acknowledges that Gaussian, Inc. is engaged in the
 business of creating and licensing software in the field of
 computational chemistry and represents and warrants to the
 licensee that it is not a competitor of Gaussian, Inc. and that
 it will not use this program in any manner prohibited above.
 ---------------------------------------------------------------
  

 Cite this work as:
 Gaussian 16, Revision A.03,
 M. J. Frisch, G. W. Trucks, H. B. Schlegel, G. E. Scuseria, 
 M. A. Robb, J. R. Cheeseman, G. Scalmani, V. Barone, 
 G. A. Petersson, H. Nakatsuji, X. Li, M. Caricato, A. V. Marenich, 
 J. Bloino, B. G. Janesko, R. Gomperts, B. Mennucci, H. P. Hratchian, 
 J. V. Ortiz, A. F. Izmaylov, J. L. Sonnenberg, D. Williams-Young, 
 F. Ding, F. Lipparini, F. Egidi, J. Goings, B. Peng, A. Petrone, 
 T. Henderson, D. Ranasinghe, V. G. Zakrzewski, J. Gao, N. Rega, 
 G. Zheng, W. Liang, M. Hada, M. Ehara, K. Toyota, R. Fukuda, 
 J. Hasegawa, M. Ishida, T. Nakajima, Y. Honda, O. Kitao, H. Nakai, 
 T. Vreven, K. Throssell, J. A. Montgomery, Jr., J. E. Peralta, 
 F. Ogliaro, M. J. Bearpark, J. J. Heyd, E. N. Brothers, K. N. Kudin, 
 V. N. Staroverov, T. A. Keith, R. Kobayashi, J. Normand, 
 K. Raghavachari, A. P. Rendell, J. C. Burant, S. S. Iyengar, 
 J. Tomasi, M. Cossi, J. M. Millam, M. Klene, C. Adamo, R. Cammi, 
 J. W. Ochterski, R. L. Martin, K. Morokuma, O. Farkas, 
 J. B. Foresman, and D. J. Fox, Gaussian, Inc., Wallingford CT, 2016.
 
 ******************************************
 Gaussian 16:  ES64L-G16RevA.03 25-Dec-2016
                17-Feb-2021 
 ******************************************
 %chk=AB_para_methoxy.chk
 %nprocshared=24
 Will use up to   24 processors via shared memory.
 %mem=48GB
 --------------------------
 #p 6-31g(d) m062x opt freq
 --------------------------
 1/18=20,19=15,26=3,38=1/1,3;
 2/9=110,12=2,17=6,18=5,40=1/2;
 3/5=1,6=6,7=1,11=2,25=1,30=1,71=1,74=-55/1,2,3;
 4//1;
 5/5=2,38=5/2;
 6/7=2,8=2,9=2,10=2,28=1/1;
 7//1,2,3,16;
 1/18=20,19=15,26=3/3(2);
 2/9=110/2;
 99//99;
 2/9=110/2;
 3/5=1,6=6,7=1,11=2,25=1,30=1,71=1,74=-55/1,2,3;
 4/5=5,16=3,69=1/1;
 5/5=2,38=5/2;
 7//1,2,3,16;
 1/18=20,19=15,26=3/3(-5);
 2/9=110/2;
 6/7=2,8=2,9=2,10=2,19=2,28=1/1;
 99/9=1/99;
 Leave Link    1 at Wed Feb 17 15:02:47 2021, MaxMem=  6442450944 cpu:               0.8 elap:               0.0
 (Enter /gpfs0/gaus/projects/G16A/g16/l101.exe)
 -------------------
 Title Card Required
 -------------------
 Symbolic Z-matrix:
 Charge =  0 Multiplicity = 1
 C                    -1.11472   1.63617   0.02011 
 C                     0.37502  -0.07829   0.04247 
 N                    -0.7852   -0.66111   0.03788 
 N                    -1.66485   0.41045   0.02756 
 N                     0.22295   1.30411   0.04921 
 C                    -3.06028   0.13989   0.02226 
 C                    -3.51695  -1.17431  -0.0367 
 C                    -3.95914   1.20595   0.07465 
 C                    -4.88769  -1.41801  -0.04251 
 C                    -5.32299   0.94477   0.06619 
 C                    -5.79571  -0.36549   0.00845 
 C                     1.27015   2.26802   0.04872 
 C                     1.20508   3.33382  -0.84704 
 C                     2.33144   2.15904   0.94774 
 C                     2.21674   4.28664  -0.84881 
 C                     3.34821   3.1108    0.92537 
 C                     3.29467   4.17296   0.028 
 N                     1.60944  -0.66454   0.02013 
 C                     1.91295  -2.0342   -0.03784 
 C                     3.24441  -2.38109  -0.29968 
 C                     0.9668   -3.03995   0.18034 
 C                     3.6259   -3.71404  -0.34556 
 C                     1.36792  -4.37252   0.12908 
 C                     2.6883   -4.72235  -0.13218 
 H                    -2.80233  -1.98669  -0.08021 
 H                    -3.57072   2.21639   0.12066 
 H                    -5.24334  -2.44268  -0.08868 
 H                    -6.02196   1.77441   0.10724 
 H                     0.35274   3.40232  -1.51393 
 H                     2.34211   1.35296   1.67568 
 H                     2.16558   5.11942  -1.54282 
 H                     4.17328   3.02779   1.62549 
 H                     2.37568  -0.03426  -0.1773 
 H                     3.97949  -1.59754  -0.46889 
 H                    -0.06282  -2.77919   0.38342 
 H                     4.66214  -3.96354  -0.55164 
 H                     0.62616  -5.1471    0.29852 
 H                     2.98     -5.75117  -0.16881 
 O                     4.41688   5.22749   0.01265 
 O                    -7.31013  -0.64495   0.00168 
 C                    -7.6992   -1.19382   1.26353 
 H                    -7.37809  -0.54302   2.04982 
 H                    -8.76401  -1.29391   1.29587 
 H                    -7.24661  -2.15523   1.38909 
 C                     5.34695   4.94911   1.06259 
 H                     4.83364   4.94282   2.0014 
 H                     5.7973    3.99292   0.89591 
 H                     6.10584   5.7033    1.07607 
 
 ITRead=  0  0  0  0  0  0  0  0  0  0  0  0  0  0  0  0  0  0  0  0
 ITRead=  0  0  0  0  0  0  0  0  0  0  0  0  0  0  0  0  0  0  0  0
 ITRead=  0  0  0  0  0  0  0  0
 MicOpt= -1 -1 -1 -1 -1 -1 -1 -1 -1 -1 -1 -1 -1 -1 -1 -1 -1 -1 -1 -1
 MicOpt= -1 -1 -1 -1 -1 -1 -1 -1 -1 -1 -1 -1 -1 -1 -1 -1 -1 -1 -1 -1
 MicOpt= -1 -1 -1 -1 -1 -1 -1 -1
 NAtoms=     48 NQM=       48 NQMF=       0 NMMI=      0 NMMIF=      0
                NMic=       0 NMicF=      0.
                    Isotopes and Nuclear Properties:
 (Nuclear quadrupole moments (NQMom) in fm**2, nuclear magnetic moments (NMagM)
  in nuclear magnetons)

  Atom         1           2           3           4           5           6           7           8           9          10
 IAtWgt=          12          12          14          14          14          12          12          12          12          12
 AtmWgt=  12.0000000  12.0000000  14.0030740  14.0030740  14.0030740  12.0000000  12.0000000  12.0000000  12.0000000  12.0000000
 NucSpn=           0           0           2           2           2           0           0           0           0           0
 AtZEff=  -0.0000000  -0.0000000  -0.0000000  -0.0000000  -0.0000000  -0.0000000  -0.0000000  -0.0000000  -0.0000000  -0.0000000
 NQMom=    0.0000000   0.0000000   2.0440000   2.0440000   2.0440000   0.0000000   0.0000000   0.0000000   0.0000000   0.0000000
 NMagM=    0.0000000   0.0000000   0.4037610   0.4037610   0.4037610   0.0000000   0.0000000   0.0000000   0.0000000   0.0000000
 AtZNuc=   6.0000000   6.0000000   7.0000000   7.0000000   7.0000000   6.0000000   6.0000000   6.0000000   6.0000000   6.0000000

  Atom        11          12          13          14          15          16          17          18          19          20
 IAtWgt=          12          12          12          12          12          12          12          14          12          12
 AtmWgt=  12.0000000  12.0000000  12.0000000  12.0000000  12.0000000  12.0000000  12.0000000  14.0030740  12.0000000  12.0000000
 NucSpn=           0           0           0           0           0           0           0           2           0           0
 AtZEff=  -0.0000000  -0.0000000  -0.0000000  -0.0000000  -0.0000000  -0.0000000  -0.0000000  -0.0000000  -0.0000000  -0.0000000
 NQMom=    0.0000000   0.0000000   0.0000000   0.0000000   0.0000000   0.0000000   0.0000000   2.0440000   0.0000000   0.0000000
 NMagM=    0.0000000   0.0000000   0.0000000   0.0000000   0.0000000   0.0000000   0.0000000   0.4037610   0.0000000   0.0000000
 AtZNuc=   6.0000000   6.0000000   6.0000000   6.0000000   6.0000000   6.0000000   6.0000000   7.0000000   6.0000000   6.0000000

  Atom        21          22          23          24          25          26          27          28          29          30
 IAtWgt=          12          12          12          12           1           1           1           1           1           1
 AtmWgt=  12.0000000  12.0000000  12.0000000  12.0000000   1.0078250   1.0078250   1.0078250   1.0078250   1.0078250   1.0078250
 NucSpn=           0           0           0           0           1           1           1           1           1           1
 AtZEff=  -0.0000000  -0.0000000  -0.0000000  -0.0000000  -0.0000000  -0.0000000  -0.0000000  -0.0000000  -0.0000000  -0.0000000
 NQMom=    0.0000000   0.0000000   0.0000000   0.0000000   0.0000000   0.0000000   0.0000000   0.0000000   0.0000000   0.0000000
 NMagM=    0.0000000   0.0000000   0.0000000   0.0000000   2.7928460   2.7928460   2.7928460   2.7928460   2.7928460   2.7928460
 AtZNuc=   6.0000000   6.0000000   6.0000000   6.0000000   1.0000000   1.0000000   1.0000000   1.0000000   1.0000000   1.0000000

  Atom        31          32          33          34          35          36          37          38          39          40
 IAtWgt=           1           1           1           1           1           1           1           1          16          16
 AtmWgt=   1.0078250   1.0078250   1.0078250   1.0078250   1.0078250   1.0078250   1.0078250   1.0078250  15.9949146  15.9949146
 NucSpn=           1           1           1           1           1           1           1           1           0           0
 AtZEff=  -0.0000000  -0.0000000  -0.0000000  -0.0000000  -0.0000000  -0.0000000  -0.0000000  -0.0000000  -0.0000000  -0.0000000
 NQMom=    0.0000000   0.0000000   0.0000000   0.0000000   0.0000000   0.0000000   0.0000000   0.0000000   0.0000000   0.0000000
 NMagM=    2.7928460   2.7928460   2.7928460   2.7928460   2.7928460   2.7928460   2.7928460   2.7928460   0.0000000   0.0000000
 AtZNuc=   1.0000000   1.0000000   1.0000000   1.0000000   1.0000000   1.0000000   1.0000000   1.0000000   8.0000000   8.0000000

  Atom        41          42          43          44          45          46          47          48
 IAtWgt=          12           1           1           1          12           1           1           1
 AtmWgt=  12.0000000   1.0078250   1.0078250   1.0078250  12.0000000   1.0078250   1.0078250   1.0078250
 NucSpn=           0           1           1           1           0           1           1           1
 AtZEff=  -0.0000000  -0.0000000  -0.0000000  -0.0000000  -0.0000000  -0.0000000  -0.0000000  -0.0000000
 NQMom=    0.0000000   0.0000000   0.0000000   0.0000000   0.0000000   0.0000000   0.0000000   0.0000000
 NMagM=    0.0000000   2.7928460   2.7928460   2.7928460   0.0000000   2.7928460   2.7928460   2.7928460
 AtZNuc=   6.0000000   1.0000000   1.0000000   1.0000000   6.0000000   1.0000000   1.0000000   1.0000000
 Leave Link  101 at Wed Feb 17 15:02:47 2021, MaxMem=  6442450944 cpu:               8.1 elap:               0.4
 (Enter /gpfs0/gaus/projects/G16A/g16/l103.exe)

 GradGradGradGradGradGradGradGradGradGradGradGradGradGradGradGradGradGrad
 Berny optimization.
 Initialization pass.
                           ----------------------------
                           !    Initial Parameters    !
                           ! (Angstroms and Degrees)  !
 --------------------------                            --------------------------
 ! Name  Definition              Value          Derivative Info.                !
 --------------------------------------------------------------------------------
 ! R1    R(1,4)                  1.3435         estimate D2E/DX2                !
 ! R2    R(1,5)                  1.3786         estimate D2E/DX2                !
 ! R3    R(2,3)                  1.2984         estimate D2E/DX2                !
 ! R4    R(2,5)                  1.3908         estimate D2E/DX2                !
 ! R5    R(2,18)                 1.3667         estimate D2E/DX2                !
 ! R6    R(3,4)                  1.3864         estimate D2E/DX2                !
 ! R7    R(4,6)                  1.4214         estimate D2E/DX2                !
 ! R8    R(5,12)                 1.4233         estimate D2E/DX2                !
 ! R9    R(6,7)                  1.3925         estimate D2E/DX2                !
 ! R10   R(6,8)                  1.3954         estimate D2E/DX2                !
 ! R11   R(7,9)                  1.3923         estimate D2E/DX2                !
 ! R12   R(7,25)                 1.0828         estimate D2E/DX2                !
 ! R13   R(8,10)                 1.3887         estimate D2E/DX2                !
 ! R14   R(8,26)                 1.0835         estimate D2E/DX2                !
 ! R15   R(9,11)                 1.391          estimate D2E/DX2                !
 ! R16   R(9,27)                 1.0856         estimate D2E/DX2                !
 ! R17   R(10,11)                1.3941         estimate D2E/DX2                !
 ! R18   R(10,28)                1.0856         estimate D2E/DX2                !
 ! R19   R(11,40)                1.54           estimate D2E/DX2                !
 ! R20   R(12,13)                1.3938         estimate D2E/DX2                !
 ! R21   R(12,14)                1.3952         estimate D2E/DX2                !
 ! R22   R(13,15)                1.3897         estimate D2E/DX2                !
 ! R23   R(13,29)                1.0844         estimate D2E/DX2                !
 ! R24   R(14,16)                1.3929         estimate D2E/DX2                !
 ! R25   R(14,30)                1.0862         estimate D2E/DX2                !
 ! R26   R(15,17)                1.3942         estimate D2E/DX2                !
 ! R27   R(15,31)                1.0853         estimate D2E/DX2                !
 ! R28   R(16,17)                1.3915         estimate D2E/DX2                !
 ! R29   R(16,32)                1.0853         estimate D2E/DX2                !
 ! R30   R(17,39)                1.54           estimate D2E/DX2                !
 ! R31   R(18,19)                1.4041         estimate D2E/DX2                !
 ! R32   R(18,33)                1.0116         estimate D2E/DX2                !
 ! R33   R(19,20)                1.4006         estimate D2E/DX2                !
 ! R34   R(19,21)                1.398          estimate D2E/DX2                !
 ! R35   R(20,22)                1.3872         estimate D2E/DX2                !
 ! R36   R(20,34)                1.0876         estimate D2E/DX2                !
 ! R37   R(21,23)                1.3926         estimate D2E/DX2                !
 ! R38   R(21,35)                1.0814         estimate D2E/DX2                !
 ! R39   R(22,24)                1.3933         estimate D2E/DX2                !
 ! R40   R(22,36)                1.0856         estimate D2E/DX2                !
 ! R41   R(23,24)                1.3907         estimate D2E/DX2                !
 ! R42   R(23,37)                1.0858         estimate D2E/DX2                !
 ! R43   R(24,38)                1.07           estimate D2E/DX2                !
 ! R44   R(39,45)                1.43           estimate D2E/DX2                !
 ! R45   R(40,41)                1.43           estimate D2E/DX2                !
 ! R46   R(41,42)                1.07           estimate D2E/DX2                !
 ! R47   R(41,43)                1.07           estimate D2E/DX2                !
 ! R48   R(41,44)                1.07           estimate D2E/DX2                !
 ! R49   R(45,46)                1.07           estimate D2E/DX2                !
 ! R50   R(45,47)                1.07           estimate D2E/DX2                !
 ! R51   R(45,48)                1.07           estimate D2E/DX2                !
 ! A1    A(4,1,5)              100.221          estimate D2E/DX2                !
 ! A2    A(3,2,5)              110.3951         estimate D2E/DX2                !
 ! A3    A(3,2,18)             127.9134         estimate D2E/DX2                !
 ! A4    A(5,2,18)             121.6819         estimate D2E/DX2                !
 ! A5    A(2,3,4)              102.7118         estimate D2E/DX2                !
 ! A6    A(1,4,3)              116.4471         estimate D2E/DX2                !
 ! A7    A(1,4,6)              125.1422         estimate D2E/DX2                !
 ! A8    A(3,4,6)              118.4105         estimate D2E/DX2                !
 ! A9    A(1,5,2)              110.2076         estimate D2E/DX2                !
 ! A10   A(1,5,12)             123.4213         estimate D2E/DX2                !
 ! A11   A(2,5,12)             126.3503         estimate D2E/DX2                !
 ! A12   A(4,6,7)              120.1149         estimate D2E/DX2                !
 ! A13   A(4,6,8)              119.1316         estimate D2E/DX2                !
 ! A14   A(7,6,8)              120.7535         estimate D2E/DX2                !
 ! A15   A(6,7,9)              119.2253         estimate D2E/DX2                !
 ! A16   A(6,7,25)             119.5583         estimate D2E/DX2                !
 ! A17   A(9,7,25)             121.2162         estimate D2E/DX2                !
 ! A18   A(6,8,10)             119.2571         estimate D2E/DX2                !
 ! A19   A(6,8,26)             118.8899         estimate D2E/DX2                !
 ! A20   A(10,8,26)            121.8529         estimate D2E/DX2                !
 ! A21   A(7,9,11)             120.6701         estimate D2E/DX2                !
 ! A22   A(7,9,27)             119.205          estimate D2E/DX2                !
 ! A23   A(11,9,27)            120.1249         estimate D2E/DX2                !
 ! A24   A(8,10,11)            120.6665         estimate D2E/DX2                !
 ! A25   A(8,10,28)            119.2343         estimate D2E/DX2                !
 ! A26   A(11,10,28)           120.099          estimate D2E/DX2                !
 ! A27   A(9,11,10)            119.4274         estimate D2E/DX2                !
 ! A28   A(9,11,40)            120.2956         estimate D2E/DX2                !
 ! A29   A(10,11,40)           120.2769         estimate D2E/DX2                !
 ! A30   A(5,12,13)            118.9309         estimate D2E/DX2                !
 ! A31   A(5,12,14)            120.4359         estimate D2E/DX2                !
 ! A32   A(13,12,14)           120.6232         estimate D2E/DX2                !
 ! A33   A(12,13,15)           119.4145         estimate D2E/DX2                !
 ! A34   A(12,13,29)           118.7018         estimate D2E/DX2                !
 ! A35   A(15,13,29)           121.8761         estimate D2E/DX2                !
 ! A36   A(12,14,16)           119.4434         estimate D2E/DX2                !
 ! A37   A(12,14,30)           119.8214         estimate D2E/DX2                !
 ! A38   A(16,14,30)           120.7095         estimate D2E/DX2                !
 ! A39   A(13,15,17)           120.4073         estimate D2E/DX2                !
 ! A40   A(13,15,31)           119.5124         estimate D2E/DX2                !
 ! A41   A(17,15,31)           120.0794         estimate D2E/DX2                !
 ! A42   A(14,16,17)           120.2544         estimate D2E/DX2                !
 ! A43   A(14,16,32)           119.494          estimate D2E/DX2                !
 ! A44   A(17,16,32)           120.2421         estimate D2E/DX2                !
 ! A45   A(15,17,16)           119.839          estimate D2E/DX2                !
 ! A46   A(15,17,39)           120.0875         estimate D2E/DX2                !
 ! A47   A(16,17,39)           120.071          estimate D2E/DX2                !
 ! A48   A(2,18,19)            127.9035         estimate D2E/DX2                !
 ! A49   A(2,18,33)            114.8374         estimate D2E/DX2                !
 ! A50   A(19,18,33)           115.8483         estimate D2E/DX2                !
 ! A51   A(18,19,20)           117.0528         estimate D2E/DX2                !
 ! A52   A(18,19,21)           123.3024         estimate D2E/DX2                !
 ! A53   A(20,19,21)           119.6287         estimate D2E/DX2                !
 ! A54   A(19,20,22)           120.3709         estimate D2E/DX2                !
 ! A55   A(19,20,34)           119.5475         estimate D2E/DX2                !
 ! A56   A(22,20,34)           120.0815         estimate D2E/DX2                !
 ! A57   A(19,21,23)           119.1927         estimate D2E/DX2                !
 ! A58   A(19,21,35)           120.0159         estimate D2E/DX2                !
 ! A59   A(23,21,35)           120.7913         estimate D2E/DX2                !
 ! A60   A(20,22,24)           120.3476         estimate D2E/DX2                !
 ! A61   A(20,22,36)           119.3155         estimate D2E/DX2                !
 ! A62   A(24,22,36)           120.3367         estimate D2E/DX2                !
 ! A63   A(21,23,24)           121.4061         estimate D2E/DX2                !
 ! A64   A(21,23,37)           118.6944         estimate D2E/DX2                !
 ! A65   A(24,23,37)           119.8994         estimate D2E/DX2                !
 ! A66   A(22,24,23)           119.0536         estimate D2E/DX2                !
 ! A67   A(22,24,38)           120.4732         estimate D2E/DX2                !
 ! A68   A(23,24,38)           120.4732         estimate D2E/DX2                !
 ! A69   A(17,39,45)           109.4712         estimate D2E/DX2                !
 ! A70   A(11,40,41)           109.4712         estimate D2E/DX2                !
 ! A71   A(40,41,42)           109.4712         estimate D2E/DX2                !
 ! A72   A(40,41,43)           109.4712         estimate D2E/DX2                !
 ! A73   A(40,41,44)           109.4712         estimate D2E/DX2                !
 ! A74   A(42,41,43)           109.4713         estimate D2E/DX2                !
 ! A75   A(42,41,44)           109.4712         estimate D2E/DX2                !
 ! A76   A(43,41,44)           109.4712         estimate D2E/DX2                !
 ! A77   A(39,45,46)           109.4712         estimate D2E/DX2                !
 ! A78   A(39,45,47)           109.4712         estimate D2E/DX2                !
 ! A79   A(39,45,48)           109.4712         estimate D2E/DX2                !
 ! A80   A(46,45,47)           109.4713         estimate D2E/DX2                !
 ! A81   A(46,45,48)           109.4712         estimate D2E/DX2                !
 ! A82   A(47,45,48)           109.4712         estimate D2E/DX2                !
 ! D1    D(5,1,4,3)             -0.968          estimate D2E/DX2                !
 ! D2    D(5,1,4,6)            179.1983         estimate D2E/DX2                !
 ! D3    D(4,1,5,2)              1.2824         estimate D2E/DX2                !
 ! D4    D(4,1,5,12)           179.7194         estimate D2E/DX2                !
 ! D5    D(5,2,3,4)              0.6127         estimate D2E/DX2                !
 ! D6    D(18,2,3,4)          -178.2638         estimate D2E/DX2                !
 ! D7    D(3,2,5,1)             -1.2785         estimate D2E/DX2                !
 ! D8    D(3,2,5,12)          -179.6588         estimate D2E/DX2                !
 ! D9    D(18,2,5,1)           177.6799         estimate D2E/DX2                !
 ! D10   D(18,2,5,12)           -0.7004         estimate D2E/DX2                !
 ! D11   D(3,2,18,19)            1.2842         estimate D2E/DX2                !
 ! D12   D(3,2,18,33)          167.0365         estimate D2E/DX2                !
 ! D13   D(5,2,18,19)         -177.4783         estimate D2E/DX2                !
 ! D14   D(5,2,18,33)          -11.726          estimate D2E/DX2                !
 ! D15   D(2,3,4,1)              0.254          estimate D2E/DX2                !
 ! D16   D(2,3,4,6)           -179.9007         estimate D2E/DX2                !
 ! D17   D(1,4,6,7)            176.7796         estimate D2E/DX2                !
 ! D18   D(1,4,6,8)             -3.1212         estimate D2E/DX2                !
 ! D19   D(3,4,6,7)             -3.0511         estimate D2E/DX2                !
 ! D20   D(3,4,6,8)            177.0481         estimate D2E/DX2                !
 ! D21   D(1,5,12,13)          -45.7734         estimate D2E/DX2                !
 ! D22   D(1,5,12,14)          133.0812         estimate D2E/DX2                !
 ! D23   D(2,5,12,13)          132.4054         estimate D2E/DX2                !
 ! D24   D(2,5,12,14)          -48.74           estimate D2E/DX2                !
 ! D25   D(4,6,7,9)           -179.9228         estimate D2E/DX2                !
 ! D26   D(4,6,7,25)            -0.1109         estimate D2E/DX2                !
 ! D27   D(8,6,7,9)             -0.0236         estimate D2E/DX2                !
 ! D28   D(8,6,7,25)           179.7883         estimate D2E/DX2                !
 ! D29   D(4,6,8,10)           179.8379         estimate D2E/DX2                !
 ! D30   D(4,6,8,26)            -0.1491         estimate D2E/DX2                !
 ! D31   D(7,6,8,10)            -0.0623         estimate D2E/DX2                !
 ! D32   D(7,6,8,26)           179.9508         estimate D2E/DX2                !
 ! D33   D(6,7,9,11)             0.0638         estimate D2E/DX2                !
 ! D34   D(6,7,9,27)           179.9881         estimate D2E/DX2                !
 ! D35   D(25,7,9,11)         -179.7448         estimate D2E/DX2                !
 ! D36   D(25,7,9,27)            0.1794         estimate D2E/DX2                !
 ! D37   D(6,8,10,11)            0.1095         estimate D2E/DX2                !
 ! D38   D(6,8,10,28)          179.983          estimate D2E/DX2                !
 ! D39   D(26,8,10,11)        -179.904          estimate D2E/DX2                !
 ! D40   D(26,8,10,28)          -0.0304         estimate D2E/DX2                !
 ! D41   D(7,9,11,10)           -0.0176         estimate D2E/DX2                !
 ! D42   D(7,9,11,40)         -179.995          estimate D2E/DX2                !
 ! D43   D(27,9,11,10)        -179.9411         estimate D2E/DX2                !
 ! D44   D(27,9,11,40)           0.0815         estimate D2E/DX2                !
 ! D45   D(8,10,11,9)           -0.0702         estimate D2E/DX2                !
 ! D46   D(8,10,11,40)         179.9072         estimate D2E/DX2                !
 ! D47   D(28,10,11,9)        -179.9426         estimate D2E/DX2                !
 ! D48   D(28,10,11,40)          0.0348         estimate D2E/DX2                !
 ! D49   D(9,11,40,41)          72.2151         estimate D2E/DX2                !
 ! D50   D(10,11,40,41)       -107.7621         estimate D2E/DX2                !
 ! D51   D(5,12,13,15)         179.4892         estimate D2E/DX2                !
 ! D52   D(5,12,13,29)           0.4722         estimate D2E/DX2                !
 ! D53   D(14,12,13,15)          0.6368         estimate D2E/DX2                !
 ! D54   D(14,12,13,29)       -178.3802         estimate D2E/DX2                !
 ! D55   D(5,12,14,16)         179.725          estimate D2E/DX2                !
 ! D56   D(5,12,14,30)          -2.1032         estimate D2E/DX2                !
 ! D57   D(13,12,14,16)         -1.4399         estimate D2E/DX2                !
 ! D58   D(13,12,14,30)        176.7319         estimate D2E/DX2                !
 ! D59   D(12,13,15,17)          0.5999         estimate D2E/DX2                !
 ! D60   D(12,13,15,31)       -179.7479         estimate D2E/DX2                !
 ! D61   D(29,13,15,17)        179.5846         estimate D2E/DX2                !
 ! D62   D(29,13,15,31)         -0.7632         estimate D2E/DX2                !
 ! D63   D(12,14,16,17)          1.0123         estimate D2E/DX2                !
 ! D64   D(12,14,16,32)        179.8938         estimate D2E/DX2                !
 ! D65   D(30,14,16,17)       -177.1428         estimate D2E/DX2                !
 ! D66   D(30,14,16,32)          1.7387         estimate D2E/DX2                !
 ! D67   D(13,15,17,16)         -1.0214         estimate D2E/DX2                !
 ! D68   D(13,15,17,39)        179.5519         estimate D2E/DX2                !
 ! D69   D(31,15,17,16)        179.3284         estimate D2E/DX2                !
 ! D70   D(31,15,17,39)         -0.0983         estimate D2E/DX2                !
 ! D71   D(14,16,17,15)          0.2063         estimate D2E/DX2                !
 ! D72   D(14,16,17,39)        179.6331         estimate D2E/DX2                !
 ! D73   D(32,16,17,15)       -178.6668         estimate D2E/DX2                !
 ! D74   D(32,16,17,39)          0.76           estimate D2E/DX2                !
 ! D75   D(15,17,39,45)        175.6365         estimate D2E/DX2                !
 ! D76   D(16,17,39,45)         -3.7888         estimate D2E/DX2                !
 ! D77   D(2,18,19,20)         168.4503         estimate D2E/DX2                !
 ! D78   D(2,18,19,21)         -13.0151         estimate D2E/DX2                !
 ! D79   D(33,18,19,20)          2.82           estimate D2E/DX2                !
 ! D80   D(33,18,19,21)       -178.6453         estimate D2E/DX2                !
 ! D81   D(18,19,20,22)        178.708          estimate D2E/DX2                !
 ! D82   D(18,19,20,34)         -1.3879         estimate D2E/DX2                !
 ! D83   D(21,19,20,22)          0.1169         estimate D2E/DX2                !
 ! D84   D(21,19,20,34)       -179.979          estimate D2E/DX2                !
 ! D85   D(18,19,21,23)       -178.6774         estimate D2E/DX2                !
 ! D86   D(18,19,21,35)          1.4769         estimate D2E/DX2                !
 ! D87   D(20,19,21,23)         -0.1787         estimate D2E/DX2                !
 ! D88   D(20,19,21,35)        179.9756         estimate D2E/DX2                !
 ! D89   D(19,20,22,24)          0.0279         estimate D2E/DX2                !
 ! D90   D(19,20,22,36)        179.8925         estimate D2E/DX2                !
 ! D91   D(34,20,22,24)       -179.8757         estimate D2E/DX2                !
 ! D92   D(34,20,22,36)         -0.0111         estimate D2E/DX2                !
 ! D93   D(19,21,23,24)          0.0997         estimate D2E/DX2                !
 ! D94   D(19,21,23,37)       -179.9244         estimate D2E/DX2                !
 ! D95   D(35,21,23,24)        179.9441         estimate D2E/DX2                !
 ! D96   D(35,21,23,37)         -0.08           estimate D2E/DX2                !
 ! D97   D(20,22,24,23)         -0.1078         estimate D2E/DX2                !
 ! D98   D(20,22,24,38)        179.8922         estimate D2E/DX2                !
 ! D99   D(36,22,24,23)       -179.9709         estimate D2E/DX2                !
 ! D100  D(36,22,24,38)          0.0291         estimate D2E/DX2                !
 ! D101  D(21,23,24,22)          0.0437         estimate D2E/DX2                !
 ! D102  D(21,23,24,38)       -179.9563         estimate D2E/DX2                !
 ! D103  D(37,23,24,22)       -179.9318         estimate D2E/DX2                !
 ! D104  D(37,23,24,38)          0.0682         estimate D2E/DX2                !
 ! D105  D(17,39,45,46)        -57.8158         estimate D2E/DX2                !
 ! D106  D(17,39,45,47)         62.1842         estimate D2E/DX2                !
 ! D107  D(17,39,45,48)       -177.8158         estimate D2E/DX2                !
 ! D108  D(11,40,41,42)         54.2107         estimate D2E/DX2                !
 ! D109  D(11,40,41,43)        174.2107         estimate D2E/DX2                !
 ! D110  D(11,40,41,44)        -65.7893         estimate D2E/DX2                !
 --------------------------------------------------------------------------------
 Trust Radius=3.00D-01 FncErr=1.00D-07 GrdErr=1.00D-06 EigMax=2.50D+02 EigMin=1.00D-04
 Number of steps in this run=    253 maximum allowed number of steps=    288.
 GradGradGradGradGradGradGradGradGradGradGradGradGradGradGradGradGradGrad

 Leave Link  103 at Wed Feb 17 15:02:47 2021, MaxMem=  6442450944 cpu:               0.3 elap:               0.0
 (Enter /gpfs0/gaus/projects/G16A/g16/l202.exe)
                          Input orientation:                          
 ---------------------------------------------------------------------
 Center     Atomic      Atomic             Coordinates (Angstroms)
 Number     Number       Type             X           Y           Z
 ---------------------------------------------------------------------
      1          6           0       -1.114721    1.636173    0.020106
      2          6           0        0.375021   -0.078287    0.042466
      3          7           0       -0.785202   -0.661109    0.037879
      4          7           0       -1.664851    0.410453    0.027557
      5          7           0        0.222951    1.304110    0.049207
      6          6           0       -3.060282    0.139893    0.022261
      7          6           0       -3.516947   -1.174310   -0.036698
      8          6           0       -3.959144    1.205950    0.074648
      9          6           0       -4.887692   -1.418012   -0.042509
     10          6           0       -5.322993    0.944770    0.066187
     11          6           0       -5.795710   -0.365489    0.008449
     12          6           0        1.270146    2.268017    0.048724
     13          6           0        1.205077    3.333822   -0.847039
     14          6           0        2.331439    2.159040    0.947740
     15          6           0        2.216737    4.286635   -0.848811
     16          6           0        3.348205    3.110798    0.925369
     17          6           0        3.294672    4.172960    0.027995
     18          7           0        1.609443   -0.664542    0.020132
     19          6           0        1.912947   -2.034198   -0.037842
     20          6           0        3.244407   -2.381094   -0.299681
     21          6           0        0.966803   -3.039946    0.180336
     22          6           0        3.625896   -3.714039   -0.345561
     23          6           0        1.367915   -4.372516    0.129077
     24          6           0        2.688299   -4.722351   -0.132184
     25          1           0       -2.802326   -1.986689   -0.080210
     26          1           0       -3.570719    2.216394    0.120661
     27          1           0       -5.243345   -2.442680   -0.088678
     28          1           0       -6.021964    1.774412    0.107236
     29          1           0        0.352737    3.402324   -1.513931
     30          1           0        2.342107    1.352959    1.675681
     31          1           0        2.165576    5.119421   -1.542820
     32          1           0        4.173278    3.027791    1.625493
     33          1           0        2.375676   -0.034260   -0.177304
     34          1           0        3.979485   -1.597541   -0.468889
     35          1           0       -0.062824   -2.779188    0.383417
     36          1           0        4.662137   -3.963544   -0.551640
     37          1           0        0.626160   -5.147099    0.298515
     38          1           0        2.980000   -5.751170   -0.168810
     39          8           0        4.416875    5.227486    0.012651
     40          8           0       -7.310126   -0.644951    0.001684
     41          6           0       -7.699196   -1.193821    1.263535
     42          1           0       -7.378089   -0.543016    2.049819
     43          1           0       -8.764013   -1.293913    1.295873
     44          1           0       -7.246608   -2.155226    1.389093
     45          6           0        5.346950    4.949110    1.062588
     46          1           0        4.833640    4.942816    2.001403
     47          1           0        5.797298    3.992917    0.895906
     48          1           0        6.105840    5.703300    1.076072
 ---------------------------------------------------------------------
                    Distance matrix (angstroms):
                    1          2          3          4          5
     1  C    0.000000
     2  C    2.271388   0.000000
     3  N    2.320863   1.298391   0.000000
     4  N    1.343536   2.097657   1.386410   0.000000
     5  N    1.378579   1.390752   2.208752   2.088753   0.000000
     6  C    2.454397   3.442284   2.412019   1.421428   3.483640
     7  C    3.697666   4.044125   2.780534   2.438414   4.487403
     8  C    2.877292   4.520541   3.682549   2.428747   4.183324
     9  C    4.854614   5.431227   4.172504   3.706062   5.791117
    10  C    4.264940   5.789177   4.813647   3.697160   5.557599
    11  C    5.091016   6.177505   5.019307   4.203147   6.246079
    12  C    2.467314   2.511261   3.578317   3.473500   1.423283
    13  C    3.002568   3.622527   4.550139   4.188973   2.426429
    14  C    3.606926   3.106883   4.300528   4.458097   2.446219
    15  C    4.344949   4.820668   5.854744   5.555136   3.698253
    16  C    4.786620   4.448551   5.665684   5.764431   3.714700
    17  C    5.087052   5.157293   6.325638   6.225217   4.203120
    18  N    3.565720   1.366745   2.394713   3.446255   2.408069
    19  C    4.758335   2.489428   3.028385   4.333732   3.742722
    20  C    5.936556   3.695045   4.394319   5.656910   4.778247
    21  C    5.120987   3.023349   2.957817   4.342142   4.409233
    22  C    7.157648   4.892591   5.378215   6.718828   6.075993
    23  C    6.502284   4.408372   4.291710   5.664342   5.791494
    24  C    7.410599   5.191251   5.346758   6.732095   6.513760
    25  H    3.997900   3.708447   2.416588   2.655514   4.471958
    26  H    2.525608   4.565144   4.005744   2.627246   3.902474
    27  H    5.804689   6.097015   4.802609   4.578154   6.628562
    28  H    4.909963   6.660188   5.775833   4.566308   6.262868
    29  H    2.761520   3.812810   4.496055   3.924046   2.619684
    30  H    3.843280   2.930065   4.064348   4.433998   2.671821
    31  H    5.033498   5.721485   6.679837   6.269979   4.567816
    32  H    5.698842   5.155623   6.380833   6.594513   4.589209
    33  H    3.874557   2.013171   3.229612   4.070086   2.544949
    34  H    6.053673   3.944842   4.882209   6.011408   4.774887
    35  H    4.553449   2.757322   2.264395   3.587051   4.106907
    36  H    8.065718   5.816145   6.397430   7.713501   6.914880
    37  H    7.008634   5.081485   4.709987   6.017353   6.468603
    38  H    8.448389   6.245971   6.334682   7.718731   7.577983
    39  O    6.595160   6.669985   7.857340   7.758313   5.743101
    40  O    6.602038   7.706118   6.525044   5.743142   7.781282
    41  C    7.273946   8.241869   7.041969   6.365112   8.394919
    42  H    6.935299   8.022228   6.894056   6.135123   8.074040
    43  H    8.290034   9.304339   8.102124   7.410236   9.437660
    44  H    7.338179   8.013508   6.768156   6.292257   8.340061
    45  C    7.335905   7.143909   8.374238   8.416415   6.369327
    46  H    7.088189   6.994869   8.175010   8.165095   6.189484
    47  H    7.355085   6.834044   8.107125   8.322965   6.246593
    48  H    8.354226   8.205936   9.437691   9.460299   7.417258
                    6          7          8          9         10
     6  C    0.000000
     7  C    1.392533   0.000000
     8  C    1.395412   2.423546   0.000000
     9  C    2.402226   1.392252   2.785876   0.000000
    10  C    2.402003   2.786196   1.388658   2.405003   0.000000
    11  C    2.781756   2.418469   2.418011   1.391006   1.394121
    12  C    4.825165   5.896878   5.336116   7.177333   6.724639
    13  C    5.399088   6.578557   5.660965   7.768464   7.011223
    14  C    5.831305   6.803232   6.422002   8.117373   7.800123
    15  C    6.767656   7.959685   6.963110   9.146914   8.297759
    16  C    7.121137   8.149726   7.599311   9.448646   8.978839
    17  C    7.526693   8.660002   7.837294   9.910349   9.202544
    18  N    4.738507   5.151987   5.874596   6.540979   7.116929
    19  C    5.428010   5.497559   6.707657   6.828499   7.825848
    20  C    6.797656   6.873238   8.055939   8.192966   9.197585
    21  C    5.133593   4.861246   6.504134   6.079099   7.446645
    22  C    7.726128   7.587215   9.050729   8.822968  10.097359
    23  C    6.323146   5.841051   7.713612   6.920344   8.546680
    24  C    7.530701   7.148622   8.909323   8.265733   9.815111
    25  H    2.144619   1.082837   3.399287   2.161843   3.868933
    26  H    2.140581   3.394779   1.083507   3.869102   2.165747
    27  H    3.383453   2.142875   3.871479   1.085617   3.391923
    28  H    3.383849   3.871794   2.139962   3.391249   1.085611
    29  H    4.965082   6.172702   5.093129   7.270682   6.383593
    30  H    5.778506   6.606652   6.503129   7.930980   7.842885
    31  H    7.386120   8.612231   7.446049   9.733322   8.723261
    32  H    7.952025   8.919646   8.477058  10.229788   9.846298
    33  H    5.442407   6.003540   6.459996   7.395232   7.764489
    34  H    7.267615   7.520798   8.436636   8.879237   9.658455
    35  H    4.199550   3.831853   5.581933   5.031259   6.452742
    36  H    8.763750   8.656928  10.071861   9.896372  11.143432
    37  H    6.451237   5.749848   7.838135   6.665205   8.518055
    38  H    8.439558   7.948297   9.829167   8.982917  10.669139
    39  O    9.043869  10.194653   9.291625  11.434188  10.639998
    40  O    4.321756   3.830131   3.828869   2.543180   2.545598
    41  C    4.983882   4.379748   4.600037   3.108145   3.413730
    42  H    4.818798   4.434016   4.318491   3.368313   3.220516
    43  H    6.017511   5.414957   5.552250   4.102747   4.285376
    44  H    4.965997   4.111624   4.881873   2.856126   3.880767
    45  C    9.741272  10.829283  10.079219  12.104105  11.440071
    46  H    9.449819  10.550137   9.746261  11.795847  11.085424
    47  H    9.698751  10.692294  10.179873  12.013650  11.560299
    48  H   10.774034  11.880144  11.069459  13.146180  12.421019
                   11         12         13         14         15
    11  C    0.000000
    12  C    7.540776   0.000000
    13  C    7.964156   1.393760   0.000000
    14  C    8.561896   1.395152   2.422816   0.000000
    15  C    9.304647   2.403419   1.389716   2.787008   0.000000
    16  C    9.825299   2.407720   2.790012   1.392895   2.410504
    17  C   10.160362   2.779918   2.415832   2.414461   1.394150
    18  N    7.411198   2.952261   4.111254   3.058488   5.063400
    19  C    7.887340   4.350832   5.474625   4.327788   6.379882
    20  C    9.267218   5.062936   6.092514   4.796080   6.768771
    21  C    7.274191   5.318253   6.460433   5.429604   7.503350
    22  C   10.005237   6.441274   7.468881   6.151529   8.139396
    23  C    8.209040   6.641739   7.769618   6.652805   8.755436
    24  C    9.538366   7.135063   8.222706   6.974749   9.049738
    25  H    3.405363   5.891025   6.704860   6.678270   8.070708
    26  H    3.410175   4.841675   4.999332   5.960102   6.222573
    27  H    2.151572   8.039596   8.690525   8.923415  10.075431
    28  H    2.154095   7.309031   7.454698   8.404387   8.666111
    29  H    7.370038   2.137798   1.084399   3.394236   2.167692
    30  H    8.482735   2.152538   3.403053   1.086176   3.872368
    31  H    9.791463   3.386047   2.143603   3.872242   1.085264
    32  H   10.654103   3.389931   3.875214   2.146264   3.396310
    33  H    8.180206   2.563935   3.628061   2.465410   4.375650
    34  H    9.864088   4.748787   5.670862   4.339907   6.154279
    35  H    6.231575   5.230976   6.363214   5.516978   7.525998
    36  H   11.073674   7.120280   8.080227   6.720590   8.610096
    37  H    8.011763   7.447218   8.577497   7.530547   9.635436
    38  H   10.298062   8.202334   9.281564   8.014907  10.089723
    39  O   11.643809   4.319914   3.826314   3.826068   2.543211
    40  O    1.540000   9.061383   9.437142  10.085492  10.761273
    41  C    2.425826   9.690675  10.209806  10.580881  11.524892
    42  H    2.588944   9.311190   9.853547  10.138571  11.126017
    43  H    3.366045  10.720405  11.197802  11.625538  12.502762
    44  H    2.685971   9.690034  10.322835  10.514118  11.664505
    45  C   12.390118   4.983624   4.838485   4.109864   3.727003
    46  H   12.047118   4.864771   4.885586   3.888525   3.924599
    47  H   12.416969   4.918140   4.955881   3.921476   3.993836
    48  H   13.402124   6.020013   5.773237   5.179223   4.564782
                   16         17         18         19         20
    16  C    0.000000
    17  C    1.391522   0.000000
    18  N    4.253932   5.122644   0.000000
    19  C    5.427589   6.359427   1.404077   0.000000
    20  C    5.627824   6.562433   2.392057   1.400601   0.000000
    21  C    6.637605   7.580778   2.466008   1.397970   2.419087
    22  C    6.947717   7.902785   3.674132   2.418833   1.387221
    23  C    7.781749   8.760580   3.717429   2.406793   2.769624
    24  C    7.931716   8.917393   4.201541   2.799328   2.412218
    25  H    8.051372   8.667547   4.606718   4.715703   6.063555
    26  H    7.022750   7.139351   5.928236   6.939975   8.231617
    27  H   10.280279  10.801761   7.080559   7.168121   8.490598
    28  H    9.500281   9.620760   8.012144   8.802805  10.163633
    29  H    3.874016   3.409750   4.524606   5.845414   6.579064
    30  H    2.159907   3.402154   2.710710   3.820101   4.319647
    31  H    3.394869   2.153626   6.017170   7.314578   7.678997
    32  H    1.085269   2.152989   4.773233   5.787876   5.815938
    33  H    3.471756   4.311311   1.011607   2.057503   2.505454
    34  H    4.950851   5.832199   2.593594   2.155702   1.087624
    35  H    6.827940   7.728613   2.720327   2.153170   3.400423
    36  H    7.345358   8.270951   4.530925   3.397707   2.139530
    37  H    8.717530   9.698332   4.597571   3.385131   3.855365
    38  H    8.936850   9.931068   5.271424   3.869320   3.382965
    39  O    2.540763   1.540000   6.526693   7.681423   7.704721
    40  O   11.338380  11.647948   8.919609   9.327199  10.700616
    41  C   11.861246  12.296098   9.406218   9.736175  11.118260
    42  H   11.387191  11.842129   9.214669   9.638739  11.033408
    43  H   12.893587  13.300606  10.470540  10.785374  12.162644
    44  H   11.840444  12.370009   9.084373   9.270828  10.628470
    45  C    2.719044   2.425826   6.824130   7.859383   7.746506
    46  H    2.592423   2.618290   6.764861   7.833754   7.839663
    47  H    2.603278   2.654962   6.324321   7.230919   6.969555
    48  H    3.787919   3.367948   7.866512   8.870740   8.685501
                   21         22         23         24         25
    21  C    0.000000
    22  C    2.793160   0.000000
    23  C    1.392574   2.399448   0.000000
    24  C    2.427283   1.393309   1.390703   0.000000
    25  H    3.922189   6.661545   4.809042   6.134616   0.000000
    26  H    6.944190   9.336952   8.234313   9.348017   4.277462
    27  H    6.244600   8.963581   6.890605   8.252864   2.483259
    28  H    8.486828  11.108975   9.612258  10.868944   4.954502
    29  H    6.689578   7.919677   8.011130   8.565887   6.407140
    30  H    4.839952   5.604284   6.010166   6.348040   6.379780
    31  H    8.425057   9.033049   9.671007   9.956084   8.792956
    32  H    7.013372   7.045350   8.054431   8.084509   8.758623
    33  H    3.338709   3.890004   4.464294   4.698720   5.534719
    34  H    3.402687   2.149372   3.857246   3.397789   6.804077
    35  H    1.081373   3.874534   2.156478   3.407404   2.889269
    36  H    3.878700   1.085595   3.388589   2.155868   7.736175
    37  H    2.137779   3.386283   1.085766   2.149030   4.678263
    38  H    3.394938   2.144371   2.142018   1.070000   6.900323
    39  O    8.959997   8.983587  10.073219  10.099911  10.206361
    40  O    8.618322  11.363822   9.445600  10.798686   4.703959
    41  C    8.926423  11.713172   9.674895  11.058870   5.139419
    42  H    8.908807  11.699612   9.738937  11.115761   5.249649
    43  H    9.948962  12.730325  10.653411  12.039476   6.157537
    44  H    8.348889  11.119814   8.984099  10.373370   4.683898
    45  C    9.153637   8.943995  10.178255  10.101141  10.762062
    46  H    9.055010   9.050306  10.113964  10.127692  10.519465
    47  H    8.561944   8.102679   9.496733   9.310142  10.519602
    48  H   10.181179   9.841618  11.174382  11.037829  11.824904
                   26         27         28         29         30
    26  H    0.000000
    27  H    4.954641   0.000000
    28  H    2.490809   4.292842   0.000000
    29  H    4.412689   8.216541   6.776068   0.000000
    30  H    6.174554   8.663655   8.520289   4.281485   0.000000
    31  H    6.640769  10.686066   8.997087   2.497127   4.957434
    32  H    7.930471  11.024392  10.383594   4.959112   2.482090
    33  H    6.365048   7.991109   8.594918   4.205825   2.314964
    34  H    8.479343   9.269273  10.570287   6.264508   3.998204
    35  H    6.109845   5.212860   7.504858   6.479484   4.952603
    36  H   10.316179  10.032245  12.145298   8.587953   6.213590
    37  H    8.477408   6.474171   9.599034   8.743704   6.862348
    38  H   10.318808   8.864307  11.736522   9.617605   7.367341
    39  O    8.536978  12.335379  10.995546   4.709446   4.699180
    40  O    4.710054   2.740726   2.742958   8.797556   9.997975
    41  C    5.475404   3.069093   3.600075   9.678455  10.367435
    42  H    5.082525   3.569177   3.314087   9.382520   9.910444
    43  H    6.377592   3.953701   4.283260  10.633192  11.423489
    44  H    5.850824   2.505893   4.311028   9.852104  10.214350
    45  C    9.374421  12.966044  11.842449   5.828649   4.726231
    46  H    9.033483  12.667266  11.466072   5.899931   4.381884
    47  H    9.566440  12.817258  12.051503   5.983256   4.417666
    48  H   10.329914  14.018475  12.785087   6.715713   5.783657
                   31         32         33         34         35
    31  H    0.000000
    32  H    4.294647   0.000000
    33  H    5.335654   3.982161   0.000000
    34  H    7.039970   5.081111   2.258555   0.000000
    35  H    8.429957   7.294403   3.714205   4.296857   0.000000
    36  H    9.471827   7.338778   4.561502   2.463906   4.960069
    37  H   10.543327   9.009536   5.424789   4.942981   2.467572
    38  H   10.987308   9.039557   5.748769   4.282716   4.289104
    39  O    2.738524   2.738477   5.646994   6.855960   9.182156
    40  O   11.198321  12.165293   9.706685  11.339496   7.564659
    41  C   12.043520  12.605898  10.243224  11.813377   7.848705
    42  H   11.664124  12.098132  10.017726  11.681198   7.828822
    43  H   12.986337  13.644020  11.307062  12.868695   8.874081
    44  H   12.251768  12.543259   9.976996  11.392466   7.280623
    45  C    4.115616   2.320740   5.932940   6.861051   9.457987
    46  H    4.439738   2.060269   5.963191   7.043309   9.285612
    47  H    4.517278   2.025144   5.392350   6.034926   8.970233
    48  H    4.767095   3.345894   6.957347   7.759547  10.511175
                   36         37         38         39         40
    36  H    0.000000
    37  H    4.290999   0.000000
    38  H    2.484301   2.474643   0.000000
    39  O    9.211602  11.049129  11.073772   0.000000
    40  O   12.436008   9.129188  11.488657  13.115189   0.000000
    41  C   12.797218   9.266673  11.698986  13.769425   1.430000
    42  H   12.784156   9.398545  11.804117  13.287961   2.051796
    43  H   13.813100  10.198878  12.646513  14.761813   2.051796
    44  H   12.200601   8.492417  10.951776  13.872126   2.051796
    45  C    9.083507  11.171530  11.027909   1.430000  13.878782
    46  H    9.266644  11.063865  11.068295   2.051796  13.516400
    47  H    8.166349  10.518434  10.198923   2.051796  13.932480
    48  H    9.908663  12.180421  11.938404   2.051796  14.880952
                   41         42         43         44         45
    41  C    0.000000
    42  H    1.070000   0.000000
    43  H    1.070000   1.747303   0.000000
    44  H    1.070000   1.747303   1.747303   0.000000
    45  C   14.421438  13.894771  15.432078  14.462914   0.000000
    46  H   13.974074  13.387420  14.976340  14.024604   1.070000
    47  H   14.463497  13.982025  15.496526  14.428665   1.070000
    48  H   15.433225  14.892313  16.435384  15.496525   1.070000
                   46         47         48
    46  H    0.000000
    47  H    1.747303   0.000000
    48  H    1.747303   1.747303   0.000000
 Stoichiometry    C22H20N4O2
 Framework group  C1[X(C22H20N4O2)]
 Deg. of freedom   138
 Full point group                 C1      NOp   1
 Largest Abelian subgroup         C1      NOp   1
 Largest concise Abelian subgroup C1      NOp   1
                         Standard orientation:                         
 ---------------------------------------------------------------------
 Center     Atomic      Atomic             Coordinates (Angstroms)
 Number     Number       Type             X           Y           Z
 ---------------------------------------------------------------------
      1          6           0        0.400000   -1.530178   -0.147238
      2          6           0       -0.407499    0.590691   -0.052013
      3          7           0        0.882429    0.738382   -0.061783
      4          7           0        1.338847   -0.569593   -0.116724
      5          7           0       -0.741056   -0.759062   -0.085178
      6          6           0        2.741961   -0.795856   -0.139826
      7          6           0        3.623055    0.282017   -0.171628
      8          6           0        3.218789   -2.107249   -0.132288
      9          6           0        4.993737    0.039065   -0.195523
     10          6           0        4.589000   -2.331344   -0.158239
     11          6           0        5.483813   -1.262735   -0.189214
     12          6           0       -2.056238   -1.303096   -0.092754
     13          6           0       -2.369241   -2.297453   -1.017875
     14          6           0       -3.008101   -0.863793    0.827799
     15          6           0       -3.647253   -2.843268   -1.027079
     16          6           0       -4.290698   -1.406213    0.798127
     17          6           0       -4.613288   -2.393130   -0.128299
     18          7           0       -1.364431    1.566410   -0.036383
     19          6           0       -1.177808    2.957942   -0.052044
     20          6           0       -2.310136    3.749984   -0.280485
     21          6           0        0.058590    3.569178    0.176054
     22          6           0       -2.209278    5.133530   -0.283643
     23          6           0        0.140857    4.959295    0.167862
     24          6           0       -0.980056    5.750265   -0.060121
     25          1           0        3.231831    1.291672   -0.180428
     26          1           0        2.506327   -2.923166   -0.106485
     27          1           0        5.680335    0.879614   -0.220511
     28          1           0        4.959566   -3.351733   -0.152083
     29          1           0       -1.597813   -2.634150   -1.701581
     30          1           0       -2.734805   -0.126603    1.577225
     31          1           0       -3.891480   -3.620522   -1.744036
     32          1           0       -5.031279   -1.066336    1.514948
     33          1           0       -2.302403    1.244921   -0.236888
     34          1           0       -3.271463    3.273059   -0.457458
     35          1           0        0.936816    2.963704    0.353510
     36          1           0       -3.097613    5.730815   -0.464279
     37          1           0        1.105363    5.425497    0.344704
     38          1           0       -0.899640    6.817232   -0.063822
     39          8           0       -6.030221   -2.995913   -0.151816
     40          8           0        7.001677   -1.521554   -0.215684
     41          6           0        7.565648   -1.180097    1.053270
     42          1           0        7.045942   -1.704981    1.827417
     43          1           0        8.599953   -1.453706    1.069142
     44          1           0        7.473040   -0.126109    1.212748
     45          6           0       -6.799384   -2.447562    0.921776
     46          1           0       -6.308213   -2.647851    1.851041
     47          1           0       -6.893910   -1.390050    0.788986
     48          1           0       -7.771555   -2.894480    0.928616
 ---------------------------------------------------------------------
 Rotational constants (GHZ):           0.2013474           0.0909468           0.0641389
 Leave Link  202 at Wed Feb 17 15:02:47 2021, MaxMem=  6442450944 cpu:               0.2 elap:               0.0
 (Enter /gpfs0/gaus/projects/G16A/g16/l301.exe)
 Standard basis: 6-31G(d) (6D, 7F)
 Ernie: Thresh=  0.10000D-02 Tol=  0.10000D-05 Strict=F.
 There are   460 symmetry adapted cartesian basis functions of A   symmetry.
 There are   460 symmetry adapted basis functions of A   symmetry.
   460 basis functions,   864 primitive gaussians,   460 cartesian basis functions
    98 alpha electrons       98 beta electrons
       nuclear repulsion energy      2339.2468920228 Hartrees.
 IExCor= 4336 DFT=T Ex+Corr=M062X ExCW=0 ScaHFX=  0.540000
 ScaDFX=  1.000000  1.000000  1.000000  1.000000 ScalE2=  1.000000  1.000000
 IRadAn=      5 IRanWt=     -1 IRanGd=            0 ICorTp=0 IEmpDi=  4
 NAtoms=   48 NActive=   48 NUniq=   48 SFac= 1.00D+00 NAtFMM=   60 NAOKFM=F Big=F
 Integral buffers will be    131072 words long.
 Raffenetti 2 integral format.
 Two-electron integral symmetry is turned on.
 Leave Link  301 at Wed Feb 17 15:02:47 2021, MaxMem=  6442450944 cpu:               1.0 elap:               0.1
 (Enter /gpfs0/gaus/projects/G16A/g16/l302.exe)
 NPDir=0 NMtPBC=     1 NCelOv=     1 NCel=       1 NClECP=     1 NCelD=      1
         NCelK=      1 NCelE2=     1 NClLst=     1 CellRange=     0.0.
 One-electron integrals computed using PRISM.
 One-electron integral symmetry used in STVInt
 NBasis=   460 RedAO= T EigKep=  3.91D-04  NBF=   460
 NBsUse=   460 1.00D-06 EigRej= -1.00D+00 NBFU=   460
 Precomputing XC quadrature grid using
 IXCGrd= 4 IRadAn=           5 IRanWt=          -1 IRanGd=           0 AccXCQ= 0.00D+00.
 Generated NRdTot=       0 NPtTot=           0 NUsed=           0 NTot=          32
 NSgBfM=   445   445   445   445   445 MxSgAt=    48 MxSgA2=    48.
 Leave Link  302 at Wed Feb 17 15:02:48 2021, MaxMem=  6442450944 cpu:              12.5 elap:               0.5
 (Enter /gpfs0/gaus/projects/G16A/g16/l303.exe)
 DipDrv:  MaxL=1.
 Leave Link  303 at Wed Feb 17 15:02:48 2021, MaxMem=  6442450944 cpu:               1.0 elap:               0.1
 (Enter /gpfs0/gaus/projects/G16A/g16/l401.exe)
 ExpMin= 1.61D-01 ExpMax= 5.48D+03 ExpMxC= 8.25D+02 IAcc=3 IRadAn=         5 AccDes= 0.00D+00
 Harris functional with IExCor= 1009 and IRadAn=       5 diagonalized for initial guess.
 HarFok:  IExCor= 1009 AccDes= 0.00D+00 IRadAn=         5 IDoV= 1 UseB2=F ITyADJ=14
 ICtDFT=  3500011 ScaDFX=  1.000000  1.000000  1.000000  1.000000
 FoFCou: FMM=F IPFlag=           0 FMFlag=      100000 FMFlg1=           0
         NFxFlg=           0 DoJE=T BraDBF=F KetDBF=T FulRan=T
         wScrn=  0.000000 ICntrl=       500 IOpCl=  0 I1Cent=   200000004 NGrid=           0
         NMat0=    1 NMatS0=      1 NMatT0=    0 NMatD0=    1 NMtDS0=    0 NMtDT0=    0
 Petite list used in FoFCou.
 Harris En= -1218.57581004708    
 JPrj=0 DoOrth=F DoCkMO=F.
 Leave Link  401 at Wed Feb 17 15:02:50 2021, MaxMem=  6442450944 cpu:              42.4 elap:               1.8
 (Enter /gpfs0/gaus/projects/G16A/g16/l502.exe)
 Integral symmetry usage will be decided dynamically.
 Closed shell SCF:
 Using DIIS extrapolation, IDIIS=  1040.
 NGot=  6442450944 LenX=  6442011672 LenY=  6441799612
 Requested convergence on RMS density matrix=1.00D-08 within 128 cycles.
 Requested convergence on MAX density matrix=1.00D-06.
 Requested convergence on             energy=1.00D-06.
 No special actions if energy rises.
 Fock matrices will be formed incrementally for  20 cycles.
 Integral accuracy reduced to 1.0D-05 until final iterations.

 Cycle   1  Pass 0  IDiag  1:
 FoFJK:  IHMeth= 1 ICntrl=       0 DoSepK=F KAlg= 0 I1Cent=           0 FoldK=F
 IRaf= 600000000 NMat=       1 IRICut=       1 DoRegI=T DoRafI=F ISym2E= 0 IDoP0=0 IntGTp=1.
 FoFCou: FMM=F IPFlag=           0 FMFlag=      100000 FMFlg1=           0
         NFxFlg=           0 DoJE=F BraDBF=F KetDBF=F FulRan=T
         wScrn=  0.000000 ICntrl=         0 IOpCl=  0 I1Cent=           0 NGrid=           0
         NMat0=    1 NMatS0=      1 NMatT0=    0 NMatD0=    1 NMtDS0=    0 NMtDT0=    0
 Symmetry not used in FoFCou.
 E= -1218.66757682289    
 DIIS: error= 4.70D-02 at cycle   1 NSaved=   1.
 NSaved= 1 IEnMin= 1 EnMin= -1218.66757682289     IErMin= 1 ErrMin= 4.70D-02
 ErrMax= 4.70D-02  0.00D+00 EMaxC= 1.00D-01 BMatC= 6.17D-01 BMatP= 6.17D-01
 IDIUse=3 WtCom= 5.30D-01 WtEn= 4.70D-01
 Coeff-Com:  0.100D+01
 Coeff-En:   0.100D+01
 Coeff:      0.100D+01
 Gap=     0.335 Goal=   None    Shift=    0.000
 GapD=    0.335 DampG=1.000 DampE=0.500 DampFc=0.5000 IDamp=-1.
 Damping current iteration by 5.00D-01
 RMSDP=3.18D-03 MaxDP=1.78D-01              OVMax= 2.04D-01

 Cycle   2  Pass 0  IDiag  1:
 RMSU=  1.57D-03    CP:  9.84D-01
 E= -1218.95271659753     Delta-E=       -0.285139774639 Rises=F Damp=T
 DIIS: error= 9.97D-03 at cycle   2 NSaved=   2.
 NSaved= 2 IEnMin= 2 EnMin= -1218.95271659753     IErMin= 2 ErrMin= 9.97D-03
 ErrMax= 9.97D-03  0.00D+00 EMaxC= 1.00D-01 BMatC= 6.05D-02 BMatP= 6.17D-01
 IDIUse=3 WtCom= 9.00D-01 WtEn= 9.97D-02
 Coeff-Com: -0.148D+00 0.115D+01
 Coeff-En:   0.000D+00 0.100D+01
 Coeff:     -0.134D+00 0.113D+01
 Gap=     0.336 Goal=   None    Shift=    0.000
 RMSDP=8.62D-04 MaxDP=3.72D-02 DE=-2.85D-01 OVMax= 1.10D-01

 Cycle   3  Pass 0  IDiag  1:
 RMSU=  8.37D-04    CP:  9.75D-01  1.09D+00
 E= -1219.20548402147     Delta-E=       -0.252767423939 Rises=F Damp=F
 DIIS: error= 4.08D-03 at cycle   3 NSaved=   3.
 NSaved= 3 IEnMin= 3 EnMin= -1219.20548402147     IErMin= 3 ErrMin= 4.08D-03
 ErrMax= 4.08D-03  0.00D+00 EMaxC= 1.00D-01 BMatC= 1.85D-02 BMatP= 6.05D-02
 IDIUse=3 WtCom= 9.59D-01 WtEn= 4.08D-02
 Coeff-Com: -0.115D+00 0.429D+00 0.685D+00
 Coeff-En:   0.000D+00 0.000D+00 0.100D+01
 Coeff:     -0.110D+00 0.412D+00 0.698D+00
 Gap=     0.264 Goal=   None    Shift=    0.000
 RMSDP=4.44D-04 MaxDP=2.27D-02 DE=-2.53D-01 OVMax= 4.80D-02

 Cycle   4  Pass 0  IDiag  1:
 RMSU=  2.81D-04    CP:  9.77D-01  1.21D+00  6.56D-01
 E= -1219.21999667169     Delta-E=       -0.014512650228 Rises=F Damp=F
 DIIS: error= 2.13D-03 at cycle   4 NSaved=   4.
 NSaved= 4 IEnMin= 4 EnMin= -1219.21999667169     IErMin= 4 ErrMin= 2.13D-03
 ErrMax= 2.13D-03  0.00D+00 EMaxC= 1.00D-01 BMatC= 3.74D-03 BMatP= 1.85D-02
 IDIUse=3 WtCom= 9.79D-01 WtEn= 2.13D-02
 Coeff-Com: -0.377D-01 0.999D-01 0.352D+00 0.586D+00
 Coeff-En:   0.000D+00 0.000D+00 0.133D+00 0.867D+00
 Coeff:     -0.369D-01 0.977D-01 0.347D+00 0.592D+00
 Gap=     0.257 Goal=   None    Shift=    0.000
 RMSDP=1.67D-04 MaxDP=1.00D-02 DE=-1.45D-02 OVMax= 1.39D-02

 Cycle   5  Pass 0  IDiag  1:
 RMSU=  8.49D-05    CP:  9.76D-01  1.18D+00  7.62D-01  6.18D-01
 E= -1219.22343721547     Delta-E=       -0.003440543776 Rises=F Damp=F
 DIIS: error= 6.99D-04 at cycle   5 NSaved=   5.
 NSaved= 5 IEnMin= 5 EnMin= -1219.22343721547     IErMin= 5 ErrMin= 6.99D-04
 ErrMax= 6.99D-04  0.00D+00 EMaxC= 1.00D-01 BMatC= 2.30D-04 BMatP= 3.74D-03
 IDIUse=3 WtCom= 9.93D-01 WtEn= 6.99D-03
 Coeff-Com: -0.116D-01 0.253D-01 0.136D+00 0.291D+00 0.560D+00
 Coeff-En:   0.000D+00 0.000D+00 0.000D+00 0.000D+00 0.100D+01
 Coeff:     -0.115D-01 0.252D-01 0.135D+00 0.289D+00 0.563D+00
 Gap=     0.256 Goal=   None    Shift=    0.000
 RMSDP=4.29D-05 MaxDP=2.56D-03 DE=-3.44D-03 OVMax= 4.06D-03

 Cycle   6  Pass 0  IDiag  1:
 RMSU=  2.99D-05    CP:  9.76D-01  1.19D+00  7.67D-01  6.59D-01  6.69D-01
 E= -1219.22364694987     Delta-E=       -0.000209734401 Rises=F Damp=F
 DIIS: error= 2.45D-04 at cycle   6 NSaved=   6.
 NSaved= 6 IEnMin= 6 EnMin= -1219.22364694987     IErMin= 6 ErrMin= 2.45D-04
 ErrMax= 2.45D-04  0.00D+00 EMaxC= 1.00D-01 BMatC= 2.35D-05 BMatP= 2.30D-04
 IDIUse=3 WtCom= 9.98D-01 WtEn= 2.45D-03
 Coeff-Com: -0.126D-02 0.123D-02 0.273D-01 0.698D-01 0.274D+00 0.629D+00
 Coeff-En:   0.000D+00 0.000D+00 0.000D+00 0.000D+00 0.000D+00 0.100D+01
 Coeff:     -0.126D-02 0.123D-02 0.272D-01 0.697D-01 0.274D+00 0.630D+00
 Gap=     0.256 Goal=   None    Shift=    0.000
 RMSDP=1.36D-05 MaxDP=1.16D-03 DE=-2.10D-04 OVMax= 1.53D-03

 Cycle   7  Pass 0  IDiag  1:
 RMSU=  9.52D-06    CP:  9.76D-01  1.19D+00  7.70D-01  6.65D-01  7.46D-01
                    CP:  7.90D-01
 E= -1219.22366897209     Delta-E=       -0.000022022217 Rises=F Damp=F
 DIIS: error= 5.77D-05 at cycle   7 NSaved=   7.
 NSaved= 7 IEnMin= 7 EnMin= -1219.22366897209     IErMin= 7 ErrMin= 5.77D-05
 ErrMax= 5.77D-05  0.00D+00 EMaxC= 1.00D-01 BMatC= 3.00D-06 BMatP= 2.35D-05
 IDIUse=1 WtCom= 1.00D+00 WtEn= 0.00D+00
 Coeff-Com:  0.929D-03-0.276D-02-0.311D-02-0.423D-02 0.630D-01 0.307D+00
 Coeff-Com:  0.639D+00
 Coeff:      0.929D-03-0.276D-02-0.311D-02-0.423D-02 0.630D-01 0.307D+00
 Coeff:      0.639D+00
 Gap=     0.256 Goal=   None    Shift=    0.000
 RMSDP=5.21D-06 MaxDP=2.64D-04 DE=-2.20D-05 OVMax= 4.53D-04

 Initial convergence to 1.0D-05 achieved.  Increase integral accuracy.
 Cycle   8  Pass 1  IDiag  1:
 E= -1219.22369515068     Delta-E=       -0.000026178592 Rises=F Damp=F
 DIIS: error= 6.45D-05 at cycle   1 NSaved=   1.
 NSaved= 1 IEnMin= 1 EnMin= -1219.22369515068     IErMin= 1 ErrMin= 6.45D-05
 ErrMax= 6.45D-05  0.00D+00 EMaxC= 1.00D-01 BMatC= 1.84D-06 BMatP= 1.84D-06
 IDIUse=1 WtCom= 1.00D+00 WtEn= 0.00D+00
 Coeff-Com:  0.100D+01
 Coeff:      0.100D+01
 Gap=     0.256 Goal=   None    Shift=    0.000
 RMSDP=5.21D-06 MaxDP=2.64D-04 DE=-2.62D-05 OVMax= 3.84D-04

 Cycle   9  Pass 1  IDiag  1:
 RMSU=  3.81D-05    CP:  1.00D+00
 E= -1219.22369624136     Delta-E=       -0.000001090683 Rises=F Damp=F
 DIIS: error= 3.24D-05 at cycle   2 NSaved=   2.
 NSaved= 2 IEnMin= 2 EnMin= -1219.22369624136     IErMin= 2 ErrMin= 3.24D-05
 ErrMax= 3.24D-05  0.00D+00 EMaxC= 1.00D-01 BMatC= 7.34D-07 BMatP= 1.84D-06
 IDIUse=1 WtCom= 1.00D+00 WtEn= 0.00D+00
 Coeff-Com:  0.338D+00 0.662D+00
 Coeff:      0.338D+00 0.662D+00
 Gap=     0.256 Goal=   None    Shift=    0.000
 RMSDP=3.22D-06 MaxDP=1.86D-04 DE=-1.09D-06 OVMax= 2.90D-04

 Cycle  10  Pass 1  IDiag  1:
 RMSU=  3.15D-06    CP:  1.00D+00  1.02D+00
 E= -1219.22369658407     Delta-E=       -0.000000342708 Rises=F Damp=F
 DIIS: error= 2.34D-05 at cycle   3 NSaved=   3.
 NSaved= 3 IEnMin= 3 EnMin= -1219.22369658407     IErMin= 3 ErrMin= 2.34D-05
 ErrMax= 2.34D-05  0.00D+00 EMaxC= 1.00D-01 BMatC= 3.94D-07 BMatP= 7.34D-07
 IDIUse=1 WtCom= 1.00D+00 WtEn= 0.00D+00
 Coeff-Com: -0.900D-02 0.422D+00 0.587D+00
 Coeff:     -0.900D-02 0.422D+00 0.587D+00
 Gap=     0.256 Goal=   None    Shift=    0.000
 RMSDP=1.46D-06 MaxDP=8.66D-05 DE=-3.43D-07 OVMax= 1.50D-04

 Cycle  11  Pass 1  IDiag  1:
 RMSU=  5.67D-07    CP:  1.00D+00  1.03D+00  5.99D-01
 E= -1219.22369695142     Delta-E=       -0.000000367355 Rises=F Damp=F
 DIIS: error= 4.18D-06 at cycle   4 NSaved=   4.
 NSaved= 4 IEnMin= 4 EnMin= -1219.22369695142     IErMin= 4 ErrMin= 4.18D-06
 ErrMax= 4.18D-06  0.00D+00 EMaxC= 1.00D-01 BMatC= 1.07D-08 BMatP= 3.94D-07
 IDIUse=1 WtCom= 1.00D+00 WtEn= 0.00D+00
 Coeff-Com: -0.132D-01 0.210D+00 0.314D+00 0.489D+00
 Coeff:     -0.132D-01 0.210D+00 0.314D+00 0.489D+00
 Gap=     0.256 Goal=   None    Shift=    0.000
 RMSDP=2.60D-07 MaxDP=1.53D-05 DE=-3.67D-07 OVMax= 2.21D-05

 Cycle  12  Pass 1  IDiag  1:
 RMSU=  2.23D-07    CP:  1.00D+00  1.03D+00  6.14D-01  7.87D-01
 E= -1219.22369696154     Delta-E=       -0.000000010114 Rises=F Damp=F
 DIIS: error= 1.29D-06 at cycle   5 NSaved=   5.
 NSaved= 5 IEnMin= 5 EnMin= -1219.22369696154     IErMin= 5 ErrMin= 1.29D-06
 ErrMax= 1.29D-06  0.00D+00 EMaxC= 1.00D-01 BMatC= 4.35D-10 BMatP= 1.07D-08
 IDIUse=1 WtCom= 1.00D+00 WtEn= 0.00D+00
 Coeff-Com: -0.239D-02-0.277D-02 0.222D-02 0.116D+00 0.887D+00
 Coeff:     -0.239D-02-0.277D-02 0.222D-02 0.116D+00 0.887D+00
 Gap=     0.256 Goal=   None    Shift=    0.000
 RMSDP=1.04D-07 MaxDP=4.51D-06 DE=-1.01D-08 OVMax= 1.05D-05

 Cycle  13  Pass 1  IDiag  1:
 RMSU=  8.06D-08    CP:  1.00D+00  1.03D+00  6.16D-01  8.93D-01  1.11D+00
 E= -1219.22369696228     Delta-E=       -0.000000000746 Rises=F Damp=F
 DIIS: error= 4.94D-07 at cycle   6 NSaved=   6.
 NSaved= 6 IEnMin= 6 EnMin= -1219.22369696228     IErMin= 6 ErrMin= 4.94D-07
 ErrMax= 4.94D-07  0.00D+00 EMaxC= 1.00D-01 BMatC= 1.54D-10 BMatP= 4.35D-10
 IDIUse=1 WtCom= 1.00D+00 WtEn= 0.00D+00
 Coeff-Com:  0.146D-02-0.402D-01-0.570D-01-0.453D-01 0.430D+00 0.711D+00
 Coeff:      0.146D-02-0.402D-01-0.570D-01-0.453D-01 0.430D+00 0.711D+00
 Gap=     0.256 Goal=   None    Shift=    0.000
 RMSDP=4.85D-08 MaxDP=2.72D-06 DE=-7.46D-10 OVMax= 7.86D-06

 Cycle  14  Pass 1  IDiag  1:
 RMSU=  3.22D-08    CP:  1.00D+00  1.03D+00  6.16D-01  9.26D-01  1.23D+00
                    CP:  8.05D-01
 E= -1219.22369696250     Delta-E=       -0.000000000216 Rises=F Damp=F
 DIIS: error= 1.35D-07 at cycle   7 NSaved=   7.
 NSaved= 7 IEnMin= 7 EnMin= -1219.22369696250     IErMin= 7 ErrMin= 1.35D-07
 ErrMax= 1.35D-07  0.00D+00 EMaxC= 1.00D-01 BMatC= 1.68D-11 BMatP= 1.54D-10
 IDIUse=1 WtCom= 1.00D+00 WtEn= 0.00D+00
 Coeff-Com:  0.949D-03-0.205D-01-0.295D-01-0.361D-01 0.128D+00 0.340D+00
 Coeff-Com:  0.617D+00
 Coeff:      0.949D-03-0.205D-01-0.295D-01-0.361D-01 0.128D+00 0.340D+00
 Coeff:      0.617D+00
 Gap=     0.256 Goal=   None    Shift=    0.000
 RMSDP=1.43D-08 MaxDP=6.59D-07 DE=-2.16D-10 OVMax= 1.39D-06

 Cycle  15  Pass 1  IDiag  1:
 RMSU=  9.66D-09    CP:  1.00D+00  1.03D+00  6.17D-01  9.34D-01  1.25D+00
                    CP:  9.03D-01  9.47D-01
 E= -1219.22369696261     Delta-E=       -0.000000000109 Rises=F Damp=F
 DIIS: error= 4.83D-08 at cycle   8 NSaved=   8.
 NSaved= 8 IEnMin= 8 EnMin= -1219.22369696261     IErMin= 8 ErrMin= 4.83D-08
 ErrMax= 4.83D-08  0.00D+00 EMaxC= 1.00D-01 BMatC= 1.04D-12 BMatP= 1.68D-11
 IDIUse=1 WtCom= 1.00D+00 WtEn= 0.00D+00
 Coeff-Com: -0.155D-04 0.186D-02 0.268D-02-0.105D-02-0.345D-01-0.284D-01
 Coeff-Com:  0.157D+00 0.903D+00
 Coeff:     -0.155D-04 0.186D-02 0.268D-02-0.105D-02-0.345D-01-0.284D-01
 Coeff:      0.157D+00 0.903D+00
 Gap=     0.256 Goal=   None    Shift=    0.000
 RMSDP=5.14D-09 MaxDP=1.96D-07 DE=-1.09D-10 OVMax= 8.89D-07

 SCF Done:  E(RM062X) =  -1219.22369696     A.U. after   15 cycles
            NFock= 15  Conv=0.51D-08     -V/T= 2.0087
 KE= 1.208662516448D+03 PE=-7.510218712921D+03 EE= 2.743085607488D+03
 Leave Link  502 at Wed Feb 17 15:03:50 2021, MaxMem=  6442450944 cpu:            1454.4 elap:              60.8
 (Enter /gpfs0/gaus/projects/G16A/g16/l601.exe)
 Copying SCF densities to generalized density rwf, IOpCl= 0 IROHF=0.

 **********************************************************************

            Population analysis using the SCF density.

 **********************************************************************

 Orbital symmetries:
       Occupied  (A) (A) (A) (A) (A) (A) (A) (A) (A) (A) (A) (A)
                 (A) (A) (A) (A) (A) (A) (A) (A) (A) (A) (A) (A)
                 (A) (A) (A) (A) (A) (A) (A) (A) (A) (A) (A) (A)
                 (A) (A) (A) (A) (A) (A) (A) (A) (A) (A) (A) (A)
                 (A) (A) (A) (A) (A) (A) (A) (A) (A) (A) (A) (A)
                 (A) (A) (A) (A) (A) (A) (A) (A) (A) (A) (A) (A)
                 (A) (A) (A) (A) (A) (A) (A) (A) (A) (A) (A) (A)
                 (A) (A) (A) (A) (A) (A) (A) (A) (A) (A) (A) (A)
                 (A) (A)
       Virtual   (A) (A) (A) (A) (A) (A) (A) (A) (A) (A) (A) (A)
                 (A) (A) (A) (A) (A) (A) (A) (A) (A) (A) (A) (A)
                 (A) (A) (A) (A) (A) (A) (A) (A) (A) (A) (A) (A)
                 (A) (A) (A) (A) (A) (A) (A) (A) (A) (A) (A) (A)
                 (A) (A) (A) (A) (A) (A) (A) (A) (A) (A) (A) (A)
                 (A) (A) (A) (A) (A) (A) (A) (A) (A) (A) (A) (A)
                 (A) (A) (A) (A) (A) (A) (A) (A) (A) (A) (A) (A)
                 (A) (A) (A) (A) (A) (A) (A) (A) (A) (A) (A) (A)
                 (A) (A) (A) (A) (A) (A) (A) (A) (A) (A) (A) (A)
                 (A) (A) (A) (A) (A) (A) (A) (A) (A) (A) (A) (A)
                 (A) (A) (A) (A) (A) (A) (A) (A) (A) (A) (A) (A)
                 (A) (A) (A) (A) (A) (A) (A) (A) (A) (A) (A) (A)
                 (A) (A) (A) (A) (A) (A) (A) (A) (A) (A) (A) (A)
                 (A) (A) (A) (A) (A) (A) (A) (A) (A) (A) (A) (A)
                 (A) (A) (A) (A) (A) (A) (A) (A) (A) (A) (A) (A)
                 (A) (A) (A) (A) (A) (A) (A) (A) (A) (A) (A) (A)
                 (A) (A) (A) (A) (A) (A) (A) (A) (A) (A) (A) (A)
                 (A) (A) (A) (A) (A) (A) (A) (A) (A) (A) (A) (A)
                 (A) (A) (A) (A) (A) (A) (A) (A) (A) (A) (A) (A)
                 (A) (A) (A) (A) (A) (A) (A) (A) (A) (A) (A) (A)
                 (A) (A) (A) (A) (A) (A) (A) (A) (A) (A) (A) (A)
                 (A) (A) (A) (A) (A) (A) (A) (A) (A) (A) (A) (A)
                 (A) (A) (A) (A) (A) (A) (A) (A) (A) (A) (A) (A)
                 (A) (A) (A) (A) (A) (A) (A) (A) (A) (A) (A) (A)
                 (A) (A) (A) (A) (A) (A) (A) (A) (A) (A) (A) (A)
                 (A) (A) (A) (A) (A) (A) (A) (A) (A) (A) (A) (A)
                 (A) (A) (A) (A) (A) (A) (A) (A) (A) (A) (A) (A)
                 (A) (A) (A) (A) (A) (A) (A) (A) (A) (A) (A) (A)
                 (A) (A) (A) (A) (A) (A) (A) (A) (A) (A) (A) (A)
                 (A) (A) (A) (A) (A) (A) (A) (A) (A) (A) (A) (A)
                 (A) (A)
 The electronic state is 1-A.
 Alpha  occ. eigenvalues --  -19.67374 -19.64404 -14.84156 -14.82972 -14.81455
 Alpha  occ. eigenvalues --  -14.78327 -10.66740 -10.63359 -10.61399 -10.60643
 Alpha  occ. eigenvalues --  -10.60549 -10.59500 -10.59383 -10.58149 -10.57684
 Alpha  occ. eigenvalues --  -10.57580 -10.57488 -10.57397 -10.57119 -10.55758
 Alpha  occ. eigenvalues --  -10.55635 -10.55535 -10.55415 -10.55361 -10.55344
 Alpha  occ. eigenvalues --  -10.55167 -10.54783 -10.54614  -1.20433  -1.14514
 Alpha  occ. eigenvalues --   -1.11871  -1.09238  -1.05795  -0.98565  -0.96821
 Alpha  occ. eigenvalues --   -0.95702  -0.93058  -0.87303  -0.86769  -0.85124
 Alpha  occ. eigenvalues --   -0.84662  -0.84561  -0.82494  -0.79456  -0.76991
 Alpha  occ. eigenvalues --   -0.74447  -0.74019  -0.72369  -0.70650  -0.69767
 Alpha  occ. eigenvalues --   -0.68192  -0.66502  -0.65944  -0.64217  -0.61275
 Alpha  occ. eigenvalues --   -0.60474  -0.58644  -0.57768  -0.57204  -0.56406
 Alpha  occ. eigenvalues --   -0.55398  -0.54700  -0.54356  -0.54032  -0.52841
 Alpha  occ. eigenvalues --   -0.51550  -0.51398  -0.51042  -0.50771  -0.50265
 Alpha  occ. eigenvalues --   -0.49777  -0.49358  -0.49070  -0.48587  -0.48325
 Alpha  occ. eigenvalues --   -0.47516  -0.46969  -0.45643  -0.44617  -0.43606
 Alpha  occ. eigenvalues --   -0.42956  -0.41383  -0.41216  -0.40864  -0.40635
 Alpha  occ. eigenvalues --   -0.40188  -0.38730  -0.38187  -0.36920  -0.33896
 Alpha  occ. eigenvalues --   -0.33070  -0.33027  -0.30771  -0.30745  -0.29700
 Alpha  occ. eigenvalues --   -0.28877  -0.28431  -0.25115
 Alpha virt. eigenvalues --    0.00497   0.00967   0.01882   0.03131   0.03187
 Alpha virt. eigenvalues --    0.04148   0.09438   0.10437   0.10872   0.11862
 Alpha virt. eigenvalues --    0.12556   0.14083   0.14434   0.15485   0.16516
 Alpha virt. eigenvalues --    0.17818   0.17875   0.18437   0.19199   0.19472
 Alpha virt. eigenvalues --    0.20037   0.20526   0.21130   0.21446   0.21590
 Alpha virt. eigenvalues --    0.21841   0.22186   0.22659   0.22973   0.23077
 Alpha virt. eigenvalues --    0.23693   0.23803   0.24454   0.24797   0.25176
 Alpha virt. eigenvalues --    0.26627   0.27195   0.28327   0.30137   0.30994
 Alpha virt. eigenvalues --    0.31085   0.32551   0.34364   0.34861   0.35275
 Alpha virt. eigenvalues --    0.35570   0.36339   0.36888   0.37574   0.38654
 Alpha virt. eigenvalues --    0.39960   0.40513   0.41728   0.44445   0.45748
 Alpha virt. eigenvalues --    0.47423   0.49667   0.52627   0.53359   0.54614
 Alpha virt. eigenvalues --    0.55215   0.55621   0.56085   0.56509   0.56989
 Alpha virt. eigenvalues --    0.57221   0.57504   0.58186   0.58662   0.59013
 Alpha virt. eigenvalues --    0.59220   0.59357   0.59762   0.60446   0.61007
 Alpha virt. eigenvalues --    0.61195   0.61912   0.62165   0.62805   0.63092
 Alpha virt. eigenvalues --    0.63493   0.63939   0.64223   0.64578   0.64851
 Alpha virt. eigenvalues --    0.65000   0.65364   0.65787   0.66081   0.66279
 Alpha virt. eigenvalues --    0.66612   0.66781   0.67029   0.67711   0.68289
 Alpha virt. eigenvalues --    0.69024   0.69605   0.70063   0.70653   0.71730
 Alpha virt. eigenvalues --    0.72302   0.72919   0.73656   0.74778   0.75405
 Alpha virt. eigenvalues --    0.76322   0.78222   0.79788   0.80526   0.81481
 Alpha virt. eigenvalues --    0.83647   0.84014   0.85375   0.86152   0.87026
 Alpha virt. eigenvalues --    0.88205   0.88477   0.88824   0.90090   0.90737
 Alpha virt. eigenvalues --    0.90882   0.91122   0.91304   0.91999   0.92285
 Alpha virt. eigenvalues --    0.92768   0.93142   0.93720   0.94149   0.94526
 Alpha virt. eigenvalues --    0.95052   0.95132   0.95944   0.96223   0.97521
 Alpha virt. eigenvalues --    0.97863   0.98424   0.99307   1.00026   1.00453
 Alpha virt. eigenvalues --    1.01295   1.02064   1.03346   1.04128   1.04443
 Alpha virt. eigenvalues --    1.04886   1.05367   1.05562   1.07265   1.08870
 Alpha virt. eigenvalues --    1.09226   1.09610   1.10406   1.11441   1.13299
 Alpha virt. eigenvalues --    1.13750   1.14273   1.16500   1.17907   1.17996
 Alpha virt. eigenvalues --    1.19295   1.19633   1.20162   1.20612   1.21647
 Alpha virt. eigenvalues --    1.22169   1.22562   1.23489   1.25728   1.26360
 Alpha virt. eigenvalues --    1.27736   1.28261   1.29776   1.29985   1.31456
 Alpha virt. eigenvalues --    1.31555   1.32267   1.33840   1.35411   1.37376
 Alpha virt. eigenvalues --    1.38761   1.40387   1.42204   1.43147   1.44477
[...]
 0504,0.00001621,-0.00006832,-0.00001117,0.00003548,-0.00021786,-0.0000
 9102,-0.00002179,-0.00001431,0.00000168,-0.00000104,0.00000746,-0.0000
 0040,0.00000490,0.00000491,0.00000012,0.00000175,-0.00000641,-0.000000
 65,0.00000154,0.00000009,0.,-0.00001398,0.00000139,0.00000095,-0.00022
 052,0.00040786,-0.00019332,-0.00141256,0.00043367,-0.00000625,-0.00019
 671,0.00062010,-0.00029597,-0.00204615,-0.00239330,0.00297612,-0.00338
 509,-0.00263095,-0.00129975,-0.02868373,-0.00438040,-0.02089031,0.0001
 4125,-0.00013475,0.00000502,-0.00000492,0.00009727,-0.00000494,-0.0000
 3265,-0.00005046,0.00001950,0.00000039,-0.00002309,0.00000247,0.000013
 98,-0.00000447,0.00000081,-0.00000291,0.00001719,0.00000079,0.00001973
 ,-0.00000653,-0.00000383,-0.00000423,-0.00000266,0.00000017,-0.0000014
 6,0.00000177,0.00000015,-0.00000102,0.00000037,0.00000017,0.00000223,-
 0.00000007,-0.00000005,-0.00012611,-0.00031829,-0.00007439,0.00008354,
 0.00000830,-0.00000982,0.00007310,-0.00004783,-0.00047763,-0.00236184,
 -0.00180201,-0.00026812,-0.00007422,-0.00000495,-0.00000049,0.00000044
 ,0.00000975,-0.00001274,-0.00000050,0.00001188,-0.00000349,0.00000226,
 -0.00001363,-0.00000346,0.00000411,0.00000365,-0.00000122,0.00000142,0
 .00000538,-0.00000168,0.01721105,-0.08243388,0.02973222,0.00001731,-0.
 00000056,-0.00000105,-0.00000364,-0.00000167,0.00000019,-0.00000023,0.
 00000058,0.00000077,0.00000142,0.00000008,-0.00000004,-0.00000028,0.00
 000059,-0.00000075,0.02817360,0.62638583,-0.00083170,0.00007838,-0.000
 33074,0.00042972,-0.00116915,0.00021866,0.00040043,0.00045380,-0.00013
 143,0.00045891,0.00070156,0.00011212,0.00118561,0.00034485,-0.00040222
 ,-0.00048971,-0.00004380,0.00005344,0.00007431,0.00002159,-0.00000790,
 0.00006529,-0.00001376,-0.00001347,0.00006065,-0.00005008,-0.00001512,
 0.00003204,0.00008259,-0.00000598,-0.00026343,-0.00001610,0.00001871,-
 0.00023951,0.00021009,0.00077464,-0.00069777,0.00065374,0.00071734,-0.
 00120898,-0.00002332,-0.00074484,0.00276637,0.00324761,0.00179398,0.00
 713644,0.00396937,0.00041701,-0.00450823,-0.01082831,0.00140966,-0.000
 29246,0.00076967,0.00002026,0.00017908,-0.00070677,-0.00001887,-0.0001
 1716,0.00012774,0.00000088,0.00002178,0.00018248,-0.00002112,0.0000302
 5,-0.00004022,-0.00001725,-0.00000353,-0.00006011,-0.00000497,-0.00003
 034,0.00007496,-0.00000064,-0.00002530,-0.00003300,0.00000425,-0.00005
 694,0.00002849,0.00002136,0.00001461,0.00001547,0.00000328,0.00001559,
 -0.00000716,0.00000431,0.00027818,0.00006399,-0.00006844,0.00025747,0.
 00024743,-0.00011170,0.00015282,-0.00029030,-0.00034471,0.00105998,0.0
 0118429,-0.00043825,0.00008727,-0.00032271,0.00000751,0.00003846,-0.00
 001523,0.00001039,0.00000280,-0.00006112,0.00002030,-0.00001893,0.0000
 1634,0.00001322,0.00000972,0.00001858,0.00000120,-0.00000339,0.0000189
 6,0.00000640,-0.10111924,0.01392094,-0.14734092,0.00035464,0.00010565,
 -0.00002006,-0.00006943,-0.00013709,0.00000421,-0.00000914,0.00002177,
 -0.00000220,0.00002087,0.00000367,0.00000004,-0.00000694,0.00001881,0.
 00000126,-0.05368378,-0.01250291,0.56261238,0.00006773,0.00001112,-0.0
 0000642,-0.00002663,0.00006462,-0.00000044,-0.00002820,-0.00002848,0.0
 0000440,-0.00002780,-0.00004695,0.00000427,-0.00002410,-0.00010261,-0.
 00010217,0.00003231,0.00000480,-0.00000032,-0.00000475,-0.00000172,-0.
 00000013,-0.00000452,0.00000046,0.00000028,-0.00000380,0.00000360,-0.0
 0000018,-0.00000203,-0.00000517,-0.00000044,0.00001689,0.00000098,-0.0
 0000060,0.00044162,-0.00045979,0.00087968,0.00032931,0.00103135,-0.000
 24859,-0.00118801,-0.00008403,-0.00013648,-0.00180255,-0.00015654,-0.0
 0013640,0.00080376,-0.00048736,0.00139865,0.00573454,0.00347156,-0.001
 98574,0.00000980,-0.00007981,-0.00002113,-0.00001925,0.00006417,0.0000
 0345,0.00000445,-0.00001504,-0.00000367,-0.00000011,-0.00001705,-0.000
 00075,-0.00000260,0.00000361,-0.00000021,-0.00000084,0.00000633,0.0000
 0024,0.00000393,-0.00000599,-0.00000168,0.00000157,0.00000226,0.000000
 68,0.00000359,-0.00000201,-0.00000065,-0.00000089,-0.00000099,0.000000
 24,-0.00000104,0.00000039,0.00000018,0.00000772,-0.00003326,-0.0000478
 6,0.00000826,-0.00003809,-0.00002147,0.00018302,-0.00012455,-0.0000344
 9,-0.00033568,-0.00127563,-0.00078839,-0.00000859,0.00003341,0.0000266
 3,-0.00000307,0.00000194,0.00000354,0.00000048,0.00000475,-0.00000029,
 0.00000207,-0.00000282,0.00000071,-0.00000004,-0.00000120,0.00000050,0
 .00000055,-0.00000093,0.00000035,-0.00045531,-0.00485266,-0.03908974,-
 0.00002288,-0.00000673,0.00000044,0.00000454,0.00000877,0.00000077,0.0
 0000044,-0.00000121,-0.00000008,-0.00000133,-0.00000024,0.00000011,0.0
 0000056,-0.00000134,-0.00000037,-0.07981029,0.00822789,0.08369405,0.08
 325976,-0.00008962,0.00001719,-0.00002664,0.00005142,-0.00014970,-0.00
 000278,0.00004338,0.00006036,-0.00000621,0.00006465,0.00008683,0.00000
 959,0.00017237,-0.00001244,-0.00003462,-0.00006666,-0.00000542,0.00000
 478,0.00001011,0.00000255,-0.00000022,0.00000914,-0.00000186,-0.000000
 83,0.00000839,-0.00000704,-0.00000088,0.00000396,0.00001130,0.00000017
 ,-0.00003650,-0.00000191,0.00000173,0.00025340,-0.00023334,0.00050860,
 0.00023678,0.00052179,-0.00022947,-0.00060973,-0.00016807,0.00020041,-
 0.00053157,-0.00023939,-0.00015430,0.00047550,0.00032043,-0.00038600,0
 .00087308,0.00066225,-0.00099128,-0.00003462,0.00010439,0.00003219,0.0
 0002194,-0.00010356,-0.00000813,-0.00000866,0.00002353,0.00000444,0.00
 000273,0.00002608,-0.00000016,0.00000349,-0.00000613,-0.00000010,-0.00
 000020,-0.00001022,0.00000052,-0.00000512,0.00000942,0.00000154,-0.000
 00337,-0.00000449,-0.00000051,-0.00000804,0.00000444,0.00000156,0.0000
 0190,0.00000207,-0.00000008,0.00000225,-0.00000085,0.,0.00000911,0.000
 00546,0.00000572,0.00000659,-0.00000090,-0.00003746,0.00001349,-0.0000
 0530,0.00002519,-0.00019431,-0.00168630,-0.00061176,0.00001388,-0.0000
 3624,-0.00002650,0.00000497,-0.00000204,-0.00000393,-0.00000087,-0.000
 00859,0.00000088,-0.00000299,0.00000350,0.,0.00000074,0.00000208,-0.00
 000054,-0.00000097,0.00000200,-0.00000005,-0.00116953,0.00207240,0.003
 14575,0.00004875,0.00001400,-0.00000176,-0.00000968,-0.00001829,-0.000
 00052,-0.00000110,0.00000271,0.,0.00000291,0.00000051,-0.00000008,-0.0
 0000103,0.00000268,0.00000041,0.00744606,-0.05731700,-0.02394400,-0.00
 853848,0.05343665,0.00017051,-0.00000929,0.00007941,-0.00007753,0.0002
 0809,-0.00006136,-0.00008396,-0.00008622,0.00003216,-0.00009051,-0.000
 13428,-0.00002890,-0.00018040,-0.00009110,0.00008573,0.00009550,0.0000
 1009,-0.00001215,-0.00001481,-0.00000500,0.00000183,-0.00001280,0.0000
 0085,0.00000318,-0.00001073,0.00001014,0.00000350,-0.00000635,-0.00001
 527,0.00000182,0.00004886,0.00000287,-0.00000398,0.00018735,-0.0003012
 7,0.00006366,0.00029513,0.00042434,0.00007828,0.00014186,-0.00016724,0
 .00025279,-0.00128561,-0.00054142,-0.00025126,-0.00072028,0.00005373,-
 0.00003100,0.00487064,0.00437691,-0.00022046,0.00004604,-0.00013460,0.
 00001253,-0.00003241,0.00011790,0.00000095,0.00002395,-0.00001889,0.00
 000139,-0.00000372,-0.00003078,0.00000472,-0.00000538,0.00000731,0.000
 00375,0.00000114,0.00000921,0.00000127,0.00000360,-0.00001296,0.000001
 00,0.00000512,0.00000661,-0.00000123,0.00001052,-0.00000595,-0.0000051
 1,-0.00000264,-0.00000279,-0.00000088,-0.00000352,0.00000120,-0.000001
 23,-0.00002330,-0.00004467,-0.00003358,-0.00006151,-0.00004075,0.00002
 888,0.00020852,-0.00009643,0.00003579,0.00034806,-0.00028953,0.0004787
 7,-0.00001837,0.00006075,-0.00001797,-0.00000673,0.00000172,-0.0000040
 7,-0.00000089,0.00001035,-0.00000423,0.00000290,-0.00000159,-0.0000028
 9,-0.00000221,-0.00000377,-0.00000041,0.00000047,-0.00000375,-0.000001
 46,-0.01298588,-0.00230066,-0.02559320,-0.00006638,-0.00001851,0.00000
 444,0.00001274,0.00002460,-0.00000147,0.00000174,-0.00000409,0.0000004
 4,-0.00000390,-0.00000071,-0.00000008,0.00000119,-0.00000333,0.0000000
 7,0.07794296,-0.02502229,-0.28388964,-0.07522050,0.02508350,0.31693095
 ,0.00007937,-0.00001481,0.00002949,-0.00007770,0.00013013,-0.00002205,
 -0.00001742,-0.00003957,0.00001057,-0.00003607,-0.00005426,-0.00001025
 ,-0.00010109,-0.00001651,0.00008045,0.00003260,-0.00000180,-0.00000643
 ,-0.00000596,0.00000010,0.00000048,-0.00000348,0.00000290,0.00000087,-
 0.00000479,0.00000222,0.00000103,-0.00000204,-0.00000687,-0.00000019,0
 .00001969,0.00000188,-0.00000115,0.00047712,-0.00058946,0.00076473,0.0
 0074391,0.00082123,-0.00057235,-0.00050811,-0.00069236,-0.00026289,-0.
 00167314,-0.00110655,-0.00092840,0.00047603,-0.00033374,0.00022285,0.0
 0539706,0.00674400,0.00008499,0.00005426,-0.00011381,0.00000481,-0.000
 01988,0.00008051,-0.00000194,-0.00000360,-0.00002423,0.00000641,-0.000
 00105,-0.00002178,0.00000176,0.00000450,0.00000108,0.00000060,-0.00000
 069,0.00000969,0.00000103,0.00000708,-0.00000645,-0.00000130,0.0000009
 8,0.00000187,-0.00000018,0.00000446,-0.00000138,-0.00000083,-0.0000013
 9,-0.00000127,-0.00000008,-0.00000041,0.00000066,-0.00000006,-0.000052
 58,0.00001543,0.00003001,-0.00005684,-0.00001385,0.00002055,0.00008140
 ,0.00006282,0.00026237,-0.00137066,-0.00030639,0.00129524,-0.00004251,
 0.00003600,0.00000229,-0.00000051,0.00000235,-0.00000529,-0.00000019,0
 .00000802,-0.00000235,0.00000190,-0.00000409,-0.00000135,0.00000021,-0
 .00000061,-0.00000018,0.00000105,0.00000024,-0.00000088,-0.02916787,0.
 02150936,-0.00785765,-0.00002610,-0.00000949,0.00000103,0.00000535,0.0
 0001149,0.00000014,0.00000068,-0.00000165,0.00000027,-0.00000151,-0.00
 000027,0.00000004,0.00000058,-0.00000155,-0.00000041,-0.11027326,0.103
 05298,0.02060499,-0.00313153,0.00891307,0.00311826,0.12712023,-0.00014
 310,-0.00000242,-0.00005542,0.00015475,-0.00023718,0.00004161,0.000058
 30,0.00007606,-0.00002777,0.00005785,0.00014058,0.00002614,0.00012577,
 0.00017032,-0.00002398,-0.00006800,-0.00000345,0.00000832,0.00001063,0
 .00000101,-0.00000029,0.00000773,-0.00000506,-0.00000120,0.00000983,-0
 .00000608,-0.00000133,0.00000500,0.00001366,0.00000042,-0.00004098,-0.
 00000375,0.00000199,0.00026042,-0.00030904,0.00037910,0.00003891,0.000
 41755,-0.00028165,-0.00055430,-0.00042406,-0.00070736,0.00008969,-0.00
 007221,-0.00030513,0.00095165,0.00004165,0.00101273,-0.00163184,0.0002
 9765,0.00058556,-0.00008969,0.00015006,0.00000547,0.00002514,-0.000138
 14,-0.00000466,-0.00001182,0.00003251,-0.00000019,0.00000493,0.0000342
 7,-0.00000301,0.00000431,-0.00000566,-0.00000244,-0.00000007,-0.000014
 43,-0.00000021,-0.00001055,0.00001406,0.00000184,-0.00000270,-0.000004
 20,-0.00000028,-0.00000831,0.00000309,0.00000131,0.00000257,0.00000261
 ,0.,0.00000104,-0.00000135,-0.00000007,0.00002122,0.00002576,0.0000128
 2,0.00000890,0.00007322,0.00001940,-0.00005084,-0.00000430,-0.00005093
 ,-0.00154643,0.00010669,0.00035544,0.00002509,-0.00003955,0.00000226,0
 .00000546,-0.00000579,0.00000064,0.00000056,-0.00001328,0.00000304,-0.
 00000433,0.00000625,0.00000198,0.00000044,0.00000167,0.00000002,-0.000
 00079,0.00000216,0.00000077,0.00461845,0.00584468,0.00608718,0.0000544
 9,0.00001946,-0.00000183,-0.00001121,-0.00002384,-0.00000061,-0.000001
 38,0.00000337,-0.00000046,0.00000314,0.00000050,-0.00000013,-0.0000012
 8,0.00000329,0.00000093,0.10809232,-0.24983185,-0.03576111,-0.00036779
 ,-0.00202804,0.00011970,-0.12223282,0.26485845,0.00013302,-0.00001104,
 0.00002849,-0.00004461,0.00017437,-0.00000681,-0.00006674,-0.00007261,
 0.00001085,-0.00007874,-0.00010941,-0.00000770,-0.00020955,-0.00004583
 ,0.00000833,0.00008442,0.00000912,-0.00000582,-0.00001238,-0.00000427,
 0.00000050,-0.00001171,0.00000188,0.00000140,-0.00001044,0.00000915,0.
 00000122,-0.00000531,-0.00001379,0.00000003,0.00004540,0.00000234,-0.0
 0000240,0.00012971,-0.00016356,0.00014334,0.00022616,0.00010226,-0.000
 21034,-0.00026050,0.00003725,-0.00022803,-0.00049031,-0.00048315,-0.00
 057538,0.00050930,-0.00106867,0.00059434,0.00282147,0.00304779,0.00042
 422,0.00002955,-0.00013149,-0.00003840,-0.00003085,0.00012160,0.000009
 37,0.00001528,-0.00002399,-0.00000999,-0.00000303,-0.00003149,0.000000
 37,-0.00000627,0.00000809,-0.00000039,0.00000027,0.00001070,-0.0000001
 4,0.00000450,-0.00001188,-0.00000175,0.00000457,0.00000575,0.00000050,
 0.00000984,-0.00000517,-0.00000253,-0.00000231,-0.00000263,0.00000003,
 -0.00000286,0.00000114,-0.00000015,-0.00003898,0.00001304,0.00001636,-
 0.00000859,-0.00002652,0.00002113,0.00000544,0.00006455,0.00015095,0.0
 0026250,0.00012046,-0.00038836,-0.00000866,0.00005405,0.00003872,-0.00
 000561,0.00000172,0.00000913,0.00000070,0.00000964,-0.00000123,0.00000
 376,-0.00000297,0.00000117,-0.00000137,-0.00000319,0.00000073,0.000001
 02,-0.00000310,0.00000037,-0.02219180,0.02103248,-0.00056909,-0.000060
 98,-0.00001741,0.00000240,0.00001200,0.00002287,0.00000053,0.00000139,
 -0.00000346,0.,-0.00000362,-0.00000064,0.00000010,0.00000130,-0.000003
 36,-0.00000046,0.02238289,-0.03766579,-0.06001750,0.01517954,-0.027456
 49,-0.00246517,-0.01368752,0.03389997,0.06097703,0.00011081,-0.0000025
 3,0.00004002,-0.00006317,0.00016543,-0.00001373,-0.00005263,-0.0000732
 7,0.00001093,-0.00006674,-0.00010316,-0.00001092,-0.00013238,-0.000055
 04,0.00004610,0.00007923,0.00000862,-0.00000682,-0.00001131,-0.0000033
 6,0.00000056,-0.00001095,0.00000273,0.00000118,-0.00001015,0.00000854,
 0.00000147,-0.00000471,-0.00001383,-0.00000013,0.00004359,0.00000235,-
 0.00000227,0.00016836,0.00004537,0.00003450,-0.00015382,0.00030564,-0.
 00036692,0.00009609,-0.00022166,0.00015400,-0.00093793,-0.00131687,0.0
 0025374,-0.00000022,0.00044315,-0.00073494,-0.00144754,0.00245589,-0.0
 0355885,0.00003925,-0.00012910,-0.00001746,-0.00002976,0.00011441,0.00
 000435,0.00001438,-0.00002260,-0.00000142,-0.00000325,-0.00002997,0.00
 000180,-0.00000337,0.00000608,0.00000146,0.00000028,0.00001053,0.00000
 036,0.00000501,-0.00001122,-0.00000089,0.00000408,0.00000530,0.0000001
 2,0.00000992,-0.00000518,-0.00000209,-0.00000222,-0.00000249,-0.000000
 05,-0.00000266,0.00000105,0.00000005,-0.00008841,-0.00008233,0.0000277
 3,-0.00003565,-0.00004436,-0.00000225,0.00000048,0.00001909,-0.0000233
 3,0.00024892,0.00014598,0.00040269,-0.00001646,0.00005220,0.00001442,-
 0.00000522,0.00000206,-0.00000020,0.00000024,0.00000974,-0.00000216,0.
 00000313,-0.00000288,-0.00000105,-0.00000128,-0.00000280,0.00000035,0.
 00000094,-0.00000261,-0.00000049,-0.02878744,-0.02520445,0.00115023,-0
 .00005838,-0.00001671,0.00000223,0.00001149,0.00002183,0.00000041,0.00
 000131,-0.00000329,0.00000002,-0.00000348,-0.00000064,0.00000013,0.000
 00124,-0.00000321,-0.00000042,-0.13647424,-0.11831487,0.04424358,-0.00
 401106,-0.00738102,0.00338324,0.01207196,0.01213964,-0.00462132,0.1595
 0375,0.00009039,-0.00000005,0.00001126,-0.00002405,0.00011557,-0.00000
 060,-0.00004800,-0.00005649,0.00000759,-0.00005645,-0.00008024,-0.0000
 0321,-0.00013135,-0.00004541,-0.00001417,0.00006558,0.00000823,-0.0000
 0353,-0.00000813,-0.00000337,0.00000022,-0.00000905,0.00000267,0.00000
 060,-0.00000942,0.00000763,0.00000075,-0.00000430,-0.00001140,-0.00000
 045,0.00003983,0.00000214,-0.00000181,0.00000586,0.00006282,-0.0001098
 4,-0.00004711,-0.00010950,0.00002947,-0.00004968,0.00020937,-0.0000796
 3,0.00003179,0.00017669,0.00011787,-0.00001196,-0.00018249,0.00058108,
 0.00160534,0.00147212,0.00026927,0.00001573,-0.00009170,-0.00002838,-0
 .00002520,0.00009257,0.00000805,0.00002201,-0.00001194,-0.00000896,-0.
 00000348,-0.00002389,0.00000065,-0.00000963,0.00000734,0.00000143,0.00
 000023,0.00000701,-0.00000016,0.00000263,-0.00001032,-0.00000065,0.000
 00379,0.00000453,0.00000050,0.00000781,-0.00000353,-0.00000109,-0.0000
 0180,-0.00000232,0.00000008,-0.00000176,0.00000113,0.00000020,0.000016
 54,-0.00001139,-0.00002215,0.00000112,0.00000826,0.00001999,-0.0000168
 6,-0.00000151,0.00000245,-0.00017806,-0.00004034,-0.00051523,0.0000087
 5,0.00004162,0.00002320,-0.00000602,0.00000187,0.00000625,0.00000020,0
 .00000696,-0.00000080,0.00000327,-0.00000124,-0.00000002,-0.00000164,-
 0.00000290,0.00000061,0.00000022,-0.00000383,0.00000019,0.00126428,0.0
 0405763,-0.00228966,-0.00005235,-0.00001613,0.00000167,0.00001079,0.00
 002066,0.00000074,0.00000122,-0.00000300,0.00000003,-0.00000318,-0.000
 00045,0.00000015,0.00000122,-0.00000302,-0.00000057,-0.12756694,-0.226
 48495,0.05944343,0.00379647,0.00465252,-0.00114276,-0.01581245,-0.0191
 6690,0.00861168,0.13708380,0.23540900,0.00001294,0.00000586,0.00001498
 ,-0.00002262,0.00001570,-0.00001315,-0.00000197,-0.00000354,0.00000312
 ,0.00000519,-0.00000616,-0.00000482,0.00002844,-0.00004845,0.00002680,
 -0.00000253,-0.00000063,-0.00000100,-0.00000016,0.00000040,-0.00000004
 ,0.00000036,0.00000002,0.00000013,0.00000068,-0.00000079,0.,0.00000011
 ,0.00000053,0.00000007,-0.00000367,-0.00000006,0.00000020,0.00015433,-
 0.00004090,0.00008997,-0.00005944,0.00030194,-0.00030483,-0.00002811,-
 0.00018214,0.00035032,-0.00090504,-0.00084746,0.00037718,-0.00033001,0
 .00089110,-0.00054405,-0.00280755,0.00088042,-0.00231811,0.00001158,-0
 .00000735,0.00000974,-0.00000013,0.00000127,-0.00000125,-0.00000175,-0
 .00000166,0.00000092,0.00000012,-0.00000047,0.00000046,0.00000099,-0.0
 0000092,-0.00000018,-0.00000025,0.00000031,0.00000018,0.00000102,-0.00
 000043,-0.00000046,-0.00000032,-0.00000028,-0.00000004,-0.00000025,0.0
 0000016,-0.00000032,-0.00000007,0.00000013,0.00000007,0.00000008,-0.00
 000008,0.00000005,-0.00004566,-0.00008985,-0.00000924,-0.00004915,-0.0
 0001343,0.00000995,0.00000721,0.00002587,-0.00000747,0.00067727,-0.000
 28680,0.00025039,-0.00000548,0.00000131,-0.00000876,0.00000079,0.00000
 086,-0.00000065,-0.00000035,0.00000059,-0.00000045,0.00000013,-0.00000
 067,0.00000024,0.00000033,0.00000025,-0.00000006,0.00000005,0.00000046
 ,0.00000008,-0.02202857,-0.02131853,0.00324347,0.00000415,0.00000102,-
 0.00000032,-0.00000108,-0.00000136,0.00000015,-0.00000013,0.00000023,0
 .,0.00000034,0.,0.00000003,-0.00000006,0.00000017,-0.00000006,0.052327
 21,0.06607932,-0.07429885,0.01665050,0.02489834,-0.00547559,-0.0031815
 3,-0.00533858,0.00209001,-0.04040793,-0.06491570,0.07652118\\0.0000005
 6,0.00000072,-0.00000418,-0.00000034,-0.00000031,-0.00000454,0.0000000
 5,-0.00000068,-0.00000028,0.00000007,0.00000093,0.00000549,-0.00000187
 ,0.00000063,0.00000205,0.00000283,-0.00001092,-0.00000004,0.00000938,0
 .00000993,-0.00000158,-0.00000825,0.00000042,0.00000087,-0.00001281,-0
 .00000613,0.00000422,0.00000368,0.00000767,0.00000229,0.00001296,-0.00
 000555,-0.00000468,-0.00000203,0.00000233,-0.00000297,-0.00000215,-0.0
 0000696,0.00000319,0.00000298,0.00000256,0.00000111,0.00000767,0.00000
 643,0.00000066,0.00000128,-0.00000054,0.00000162,-0.00000737,-0.000004
 38,-0.00000273,-0.00000020,0.00000143,0.00000161,0.00000087,-0.0000001
 0,-0.00000205,-0.00000022,0.00000045,-0.00000053,-0.00000024,-0.000000
 20,0.00000015,0.00000019,-0.00000004,-0.00000051,-0.00000002,0.0000001
 5,-0.00000049,0.00000017,0.00000124,-0.00000058,0.00000008,-0.00000109
 ,0.00000076,0.00000066,-0.00000026,-0.00000039,0.00000290,0.00000252,-
 0.00000252,-0.00000126,-0.00000195,0.00000038,0.00000011,0.00000084,-0
 .00000046,-0.00000058,-0.00000113,-0.00000076,-0.00000034,-0.00000002,
 0.00000050,-0.00000071,0.00000069,0.,0.00000041,0.00000096,0.00000193,
 0.,0.00000023,-0.00000048,0.00000033,-0.00000007,-0.00000003,0.0000001
 6,0.00000026,-0.00000064,0.00000030,-0.00000004,-0.00000039,0.00000063
 ,-0.00000087,-0.00000064,0.00000284,0.00000036,0.00000259,-0.00000674,
 0.00000347,0.00000383,-0.00000778,0.00000306,-0.00000291,0.00000475,-0
 .00000485,0.00000417,-0.00000021,0.00000013,-0.00000135,0.00000215,-0.
 00000187,0.00000192,-0.00000849,-0.00000003,-0.00000543,-0.00000013,-0
 .00000040,0.00000290,0.00000257,-0.00000076,-0.00000017,0.00000117,0.0
 0000172,-0.00000096\\\@


 IF I HAVE SEEN FARTHER, IT IS BY STANDING ON THE
 SHOULDERS OF GIANTS. -- SIR ISAAC NEWTON
 Job cpu time:       0 days  5 hours 49 minutes  1.9 seconds.
 Elapsed time:       0 days  0 hours 14 minutes 35.8 seconds.
 File lengths (MBytes):  RWF=   1182 Int=      0 D2E=      0 Chk=     19 Scr=      1
 Normal termination of Gaussian 16 at Wed Feb 17 15:50:20 2021.
